LAMMPS data file via write_data, version 17 Feb 2022, timestep = 2200000

2880 atoms
85 atom types
2941 bonds
89 bond types
4665 angles
144 angle types
5748 dihedrals
188 dihedral types
1471 impropers
46 improper types

0 50 xlo xhi
0 50 ylo yhi
0 50 zlo zhi

Masses

1 12.011
2 12.011
3 12.011
4 12.011
5 12.011
6 12.011
7 12.011
8 15.999
9 15.999
10 12.011
11 12.011
12 15.999
13 12.011
14 15.999
15 15.999
16 12.011
17 12.011
18 15.999
19 1.008
20 1.008
21 1.008
22 1.008
23 1.008
24 1.008
25 1.008
26 1.008
27 1.008
28 1.008
29 1.008
30 1.008
31 1.008
32 1.008
33 1.008
34 1.008
35 1.008
36 1.008
37 1.008
38 1.008
39 1.008
40 1.008
41 12.011
42 12.011
43 12.011
44 12.011
45 15.999
46 15.999
47 12.011
48 12.011
49 1.008
50 1.008
51 1.008
52 1.008
53 1.008
54 1.008
55 1.008
56 1.008
57 1.008
58 1.008
59 14.007
60 12.011
61 12.011
62 12.011
63 12.011
64 14.007
65 1.008
66 12.011
67 12.011
68 12.011
69 12.011
70 12.011
71 12.011
72 12.011
73 15.999
74 15.999
75 1.008
76 1.008
77 1.008
78 1.008
79 1.008
80 1.008
81 1.008
82 1.008
83 1.008
84 1.008
85 1.008

Atoms # full

1483 45 41 -0.154904 5.40086273520145 9.461675786023697 9.899725885586344 0 0 0
1484 45 42 -0.154504 4.516005818510242 9.610806171115577 10.931719850251127 0 0 0
1485 45 43 -0.175504 4.394230470113773 8.530051514570387 12.016596767954416 0 0 0
1486 45 44 0.494396 3.5866698099803354 10.758349814951893 10.966684212290257 0 0 0
1487 45 45 -0.438004 3.4665585688719966 11.605341715332411 10.077007183695455 0 0 0
1488 45 46 -0.339804 2.8759247012253835 10.797807883769721 12.124531152901946 0 0 0
1489 45 47 0.011796 1.8790444795927381 11.787049606711085 12.36679689039397 0 0 0
1490 45 48 -0.263904 1.1306762975685865 11.373150032598863 13.641349051563227 0 0 0
1492 45 50 0.159896 5.151773575153097 10.014431406860194 8.98771418866404 0 0 0
1493 45 51 0.110796 4.740430623090052 8.914799713358828 12.976117179848423 0 0 0
1494 45 52 0.110796 4.963278337777746 7.6265320422916245 11.792003631207699 0 0 0
1495 45 53 0.110796 3.3528855929348627 8.22606938623377 12.141788290974572 0 0 0
1498 45 56 0.109196 0.7584904191286875 10.352581187037316 13.512513784386181 0 0 0
1491 45 49 0.159896 5.744795092481701 8.439658936035386 9.77611917454177 0 0 0
1801 63 53 0.110796 7.374961514816519 8.184899859593822 11.210053855586054 0 0 0
1790 63 42 -0.154504 6.975022265956869 10.005482769794058 9.98186257155594 0 0 0
1794 63 46 -0.339804 7.879596655888309 8.269540030241354 8.643629231928662 0 0 0
1789 63 41 -0.154904 6.717215061732429 11.335762131799958 10.160626487709987 0 0 0
1791 63 43 -0.175504 7.503599020128292 9.268867829715584 11.241169308688093 0 0 0
1798 63 50 0.159896 6.617552633502062 12.02527885002988 9.329218326635553 0 0 0
1799 63 51 0.110796 7.066847290440473 9.632634051752131 12.174177040378728 0 0 0
1792 63 44 0.494396 7.534574295685108 9.589309533322231 8.658900938393408 0 0 0
1797 63 49 0.159896 6.591127587986821 11.774836997210588 11.141311416176604 0 0 0
1800 63 52 0.110796 8.579245407962915 9.435141691741594 11.323491497163362 0 0 0
1816 64 51 0.110796 14.266375383720334 2.021704384246688 9.293901169905109 0 0 1
1817 64 52 0.110796 12.594735301360455 2.5622428541805933 9.202934391874184 0 0 1
1796 63 48 -0.263904 8.409434795702584 6.113929007549862 7.71551567636805 0 0 0
1795 63 47 0.011796 8.298916138004621 7.623113790082947 7.443205665399904 0 0 0
1793 63 45 -0.438004 7.67370030610471 10.327171047917602 7.678574348526404 0 0 0
1808 64 43 -0.175504 13.608518687038819 2.776160205604708 8.860483810129583 0 0 1
1804 63 56 0.109196 7.6088154536228 5.808995479096842 8.394502885493022 0 0 0
1821 64 56 0.109196 10.181831845494111 5.894406615860446 8.869770702522574 0 0 1
1803 63 55 0.130796 7.573486862074881 7.809726872529986 6.644997578827381 0 0 0
1813 64 48 -0.263904 9.739968879724179 5.381836891205114 8.012351508412662 0 0 1
1802 63 54 0.130796 9.252319391859547 8.031566690464448 7.095994836862967 0 0 0
1805 63 58 0.109196 8.207790659220775 5.574206670891763 6.7869292832926424 0 0 0
1818 64 53 0.110796 13.905012678601668 3.740637679709095 9.277025702490779 0 0 1
1822 64 58 0.109196 9.424059830109696 4.404026309700827 8.386155332130594 0 0 1
1807 64 42 -0.154504 13.67154189414213 2.8279375853021667 7.327337208882704 0 0 1
1811 64 46 -0.339804 11.813786153868204 4.290143324641594 7.436952843065519 0 0 1
1812 64 47 0.011796 10.814786207627826 5.175828347165057 6.932738818502187 0 0 1
1819 64 54 0.130796 10.357193595768656 4.763553438326214 6.028146977064064 0 0 1
1809 64 44 0.494396 12.75057822611058 3.738852404491448 6.613580413027526 0 0 1
1820 64 55 0.130796 11.266528279036985 6.129256268939488 6.646172779072665 0 0 1
1810 64 45 -0.438004 12.76068943692508 3.937026666441154 5.393810621987432 0 0 1
1496 45 54 0.130796 1.1839396386125285 11.863011294805313 11.525410796077994 0 0 0
1497 45 55 0.130796 2.341231855648524 12.771068074565155 12.482577224670557 0 0 0
1815 64 50 0.159896 14.235516651689952 1.8691347370696119 5.59188363863078 0 0 1
1499 45 58 0.109196 1.8418139382591623 11.328292467360441 14.47086384247491 0 0 0
1814 64 49 0.159896 14.840596601774267 1.1382399341735185 7.211424413930764 0 0 1
1957 72 56 0.109196 19.6435835049352 0.6237411358141456 8.529448791391813 0 1 0
1941 71 58 0.109196 20.363296685248912 1.4813090360846188 10.653384943480606 0 1 0
1954 72 53 0.110796 15.40935952443972 4.5584358853729166 6.05332100882068 0 1 0
1952 72 51 0.110796 15.210878984773352 3.599186263200657 4.582750280576242 0 1 0
1936 71 52 0.110796 25.960596993563055 1.341357195258381 11.834283363818408 0 1 0
1944 72 43 -0.175504 15.838491996407647 3.743466522393091 5.465389232276997 0 1 0
1927 71 43 -0.175504 25.075876061825134 1.6530952033537607 12.389303129119574 0 1 0
1806 64 41 -0.154904 14.519690605264287 2.0070098085583856 6.635920024110248 0 0 1
1935 71 51 0.110796 24.537692301452203 2.3312654374114983 11.724665383854957 0 1 0
1956 72 55 0.130796 18.461915895695434 2.602714613769365 9.581020316173369 0 1 0
1953 72 52 0.110796 16.79128169125748 4.128697636299763 5.098005408321627 0 1 0
1943 72 42 -0.154504 16.089612347643744 2.46097081743702 6.298306922611412 0 1 0
1947 72 46 -0.339804 17.267739812718897 1.5860111207900927 8.191716745506085 0 1 0
1945 72 44 0.494396 16.651855965527066 2.6889227726649136 7.664254723448666 0 1 0
1950 72 49 0.159896 16.42683293397717 1.3405632792396847 4.497638852064836 0 1 0
1942 72 41 -0.154904 16.54145077059926 1.3884097336860364 5.573594452965148 0 1 0
1946 72 45 -0.438004 16.553610919999166 3.748802431585589 8.288700889266092 0 1 0
1948 72 47 0.011796 17.967738264006325 1.6360008231040928 9.434190692372805 0 1 0
1949 72 48 -0.263904 19.019669237978597 0.5157867503279684 9.420192490655559 0 1 0
1951 72 50 0.159896 17.04526280688845 0.5414813412246251 6.024116375379298 0 1 0
1937 71 53 0.110796 25.405955251241227 2.248847483884362 13.241364587632734 0 1 0
1148 32 30 0.108296 26.44156609320766 11.847924991640175 3.8116164601146254 0 0 1
2161 84 56 0.109196 27.264465346400538 13.357475570605557 13.014769697995776 0 0 0
1955 72 54 0.130796 17.272844524902734 1.5158806312241044 10.268764014145372 0 1 0
1147 32 29 0.108296 26.298853714860964 10.86065044070546 2.3773368118524383 0 0 1
1146 32 28 0.108296 26.127031331555564 10.135062869310557 3.9671904389655404 0 0 1
2142 83 54 0.130796 26.870707873436405 10.853008828507216 11.45406764566619 0 0 0
2153 84 48 -0.263904 27.70987775826417 12.662955370112957 13.732797974517169 0 0 0
1125 32 6 -0.218404 26.695372211442812 10.870694223547462 3.394791252052519 0 0 1
2143 83 55 0.130796 27.569402279917945 12.218301192223649 10.61505352099201 0 0 0
2135 83 47 0.011796 27.8140617572297 11.373582767372694 11.265828372753996 0 0 0
2133 83 45 -0.438004 27.201278238709936 9.499539194929975 9.306855681596488 0 0 0
2162 84 58 0.109196 28.55577018266133 13.191233450216776 14.178193896694927 0 0 0
2136 83 48 -0.263904 28.408794998684783 11.863337192334692 12.598469179345235 0 0 0
1142 32 24 0.128296 28.15602721390876 11.539130575004915 5.370304131329001 0 0 1
2144 83 56 0.109196 28.602570038606537 10.999442522006614 13.2369405060467 0 0 0
1144 32 26 0.110596 27.910749954170477 9.060373624350534 1.8766022811564003 0 0 1
1149 32 31 0.139396 28.474334501563586 13.952421556225213 0.7922129147538686 0 0 1
1128 32 9 -0.355004 28.396340947109717 12.867818569406204 2.532150894825092 0 0 1
1997 75 45 -0.438004 28.45776152630279 11.988252946468721 7.76440880961177 0 0 0
1145 32 27 0.110596 27.933384768764363 8.398937185718678 3.4992924749876186 0 0 1
1926 71 42 -0.154504 24.153807708207662 0.4839857199492217 12.782865518601206 0 1 0
1925 71 41 -0.154904 23.469968860913077 0.5803035990592931 13.954390789636285 0 1 0
1141 32 23 0.128296 28.187916968629583 9.841763532667144 5.432692689743618 0 0 1
1123 32 4 -0.020104 28.23679217408895 10.598539447560281 3.430327049644201 0 0 1
1932 71 48 -0.263904 20.140686203664117 0.4250051712619994 10.477883047131956 0 1 0
401 12 8 -0.427904 27.842289836996265 0.8059989971693977 13.54339150645784 0 0 0
2132 83 44 0.494396 28.390059257127707 9.703304102487264 9.58309078671812 0 0 0
2150 84 45 -0.438004 24.88280294211911 14.292242301103489 13.910091518061765 0 0 0
2137 83 49 0.159896 28.1975470290677 7.231386198768499 8.634369749737479 0 0 0
2739 108 73 -0.392404 19.622792301733178 10.155711734026431 13.151322773981983 0 0 0
1124 32 5 -0.223004 28.386982392609596 9.153261948496933 2.8549382685430484 0 0 1
2134 83 46 -0.339804 28.764855855285024 10.529379216430284 10.606330294987886 0 0 0
1122 32 3 -0.158104 28.685369866869582 10.679796900940309 4.953255136954516 0 0 1
2001 75 49 0.159896 28.823543709781543 9.408773141938395 7.314443757381072 0 0 0
1129 32 10 -0.026504 28.91572668548008 13.970204072072436 1.790535009369989 0 0 1
1930 71 46 -0.339804 22.233500590658753 0.0321152545762274 11.533812323694377 0 1 0
213 6 36 0.138496 21.398766958920067 13.145505393647356 14.181386799659133 0 0 0
2738 108 72 0.463096 19.051494993708353 9.888456636517652 14.204162146260938 0 0 0
1126 32 7 0.447396 28.973674257020416 11.63605962461192 2.5144858482182735 0 0 1
2159 84 54 0.130796 25.7933806176881 11.921807199195593 14.475387263066247 0 0 0
1940 71 56 0.109196 19.59239126275454 0.08896872597401252 11.361303103514402 0 1 0
411 12 18 -0.570004 28.859038975825413 0.25562987507542395 9.407359525095352 0 0 0
2740 108 74 -0.530304 18.60942800850778 8.62451606084404 14.47790349041766 0 0 0
428 12 37 0.138496 29.83774567314219 0.030624525378036102 11.819153687352792 0 0 0
1993 75 41 -0.154904 29.88558818807319 9.496074701469082 7.5124503861037 0 0 0
1994 75 42 -0.154504 30.431487413325026 10.711634244264475 7.142268422551268 0 0 0
2002 75 50 0.159896 30.5358168792348 8.6752899056771 7.218198491214438 0 0 0
2131 83 43 -0.175504 30.916117411847335 9.106171197416447 9.67716111274014 0 0 0
2140 83 52 0.110796 30.90197531977238 8.70555229150922 10.692565745958559 0 0 0
2145 83 58 0.109196 29.390067804834434 12.294307705884913 12.382281036820842 0 0 0
2130 83 42 -0.154504 29.52269572397109 8.881917153470662 9.042160158866109 0 0 0
1996 75 44 0.494396 29.672783048440838 11.932487621749896 7.543674574880782 0 0 0
2129 83 41 -0.154904 29.21769238375142 7.571780666098347 8.774718573792784 0 0 0
2138 83 50 0.159896 29.978152807555517 6.804114634225717 8.709393073087556 0 0 0
2139 83 51 0.110796 31.745281651300612 8.6047102595695 9.173669717497065 0 0 0
1121 32 2 -0.093504 30.20929326335886 10.798819188122758 5.469720074609806 0 0 1
1140 32 21 0.109896 30.45001772722131 8.64346952178303 4.885777787111381 0 0 1
1139 32 20 0.109896 31.987307328275442 9.444886647359457 5.126856522269118 0 0 1
1120 32 1 -0.221104 30.968648608550094 9.59594510534087 4.775915190123109 0 0 1
1132 32 13 0.443896 30.763124967935447 12.165194765993034 4.8718786344251015 0 0 1
1138 32 19 0.109896 31.092570102939415 9.763299363066608 3.7055697370327905 0 0 1
1134 32 15 -0.351004 31.95851369521454 12.069941517864423 4.221802276753589 0 0 1
1143 32 25 0.110596 29.419647195581078 8.856212351884897 2.6889778844954266 0 0 1
1156 32 38 0.130996 32.8206943753573 12.1841000899854 1.7256791626875767 0 0 1
2141 83 53 0.110796 31.155428640539476 10.163232569130479 9.808585455030645 0 0 0
2003 75 51 0.110796 32.515245503073736 11.374985749766202 6.516232978630447 0 0 0
1127 32 8 -0.427904 29.969231923457713 11.340169041635507 1.8450379555627583 0 0 1
1995 75 43 -0.175504 31.99081933559411 10.806190881096494 7.281014525762286 0 0 0
2004 75 52 0.110796 32.487514742655605 9.83707847386893 7.327193737412884 0 0 0
2005 75 53 0.110796 32.25705361669195 11.315915057718513 8.208417646325852 0 0 0
1157 32 39 0.130996 34.17827500428276 11.989464612050893 2.809634487533058 0 0 1
2008 75 56 0.109196 29.855582782732096 13.269146204025141 10.176874189799207 0 0 0
1133 32 14 -0.432404 30.120731508807108 13.216686141121725 4.961298778969763 0 0 1
1998 75 46 -0.339804 30.508809400078068 12.990486630208979 7.778749085233402 0 0 0
1136 32 17 -0.011604 33.441878247842396 12.715296273958685 2.4539127154598352 0 0 1
1135 32 16 -0.027204 32.589550606866005 13.207525834882627 3.628465237386392 0 0 1
1150 32 32 0.139396 29.999327323386137 13.922654475908542 1.6498329322369427 0 0 1
1154 32 36 0.138496 33.212340208913304 13.712531657464709 4.371302503936041 0 0 1
1137 32 18 -0.570004 34.11360580201185 13.812838942819297 1.852810234352392 0 0 1
1155 32 37 0.138496 31.867111404985813 13.949030727261574 3.2765691173102875 0 0 1
2000 75 48 -0.263904 30.108943350849074 14.259845118474152 9.78864542315941 0 0 0
1999 75 47 0.011796 30.03439544974592 14.247113035376737 8.249889970498376 0 0 0
855 24 30 0.108296 35.27330330299425 0.03608863329059069 0.06674467993188875 0 1 1
2009 75 58 0.109196 31.137873448878505 14.436657203068384 10.107582015579675 0 0 0
2006 75 54 0.130796 29.021416708848534 14.45635876877775 7.889975526497268 0 0 0
322 9 36 0.138496 42.58836504197992 0.8488175165073724 13.936243338992533 0 1 0
323 9 37 0.138496 41.77539993300621 2.378989500781415 14.195207709261068 0 1 0
1158 32 40 0.424896 33.49503311559353 14.403932293321924 1.4448090490108296 0 0 1
1507 46 48 -0.263904 49.82742821374762 12.05380154020397 14.119881097640016 -1 0 0
1506 46 47 0.011796 49.83930009338875 13.578778063887633 14.284778956554122 -1 0 0
2583 102 73 -0.392404 47.51707643379171 5.620131797615695 12.544292714989995 0 0 0
2582 102 72 0.463096 46.53779737170605 4.8833627254428755 12.634539292923238 0 0 0
1516 46 58 0.109196 48.939416665032475 11.760166663885228 13.553280890777296 -1 0 0
1514 46 55 0.130796 49.713458349096406 14.08487618130433 13.324715368720726 -1 0 0
2584 102 74 -0.530304 45.75109900198561 4.510307222346024 11.603132222698758 0 0 0
2594 102 85 0.492096 45.35273959428471 3.800424837115624 12.13787969997981 0 0 0
2461 97 82 0.162596 46.0945485107035 14.122298595840597 3.7206754120990504 0 0 0
2570 102 60 0.010296 46.06252414916147 4.175536895654325 13.925812801963213 0 0 0
2569 102 59 -0.952704 45.316179696186964 2.8984636397986145 13.67419654416656 0 0 0
305 9 17 -0.011604 43.923875263022396 2.4959688573568464 14.195493656876359 0 1 0
2587 102 78 0.133996 44.42114589165864 5.53476478315612 14.403809967434553 0 0 0
2585 102 75 0.403896 44.553323088391096 2.5761549763497706 14.281218003757822 0 0 0
2586 102 77 0.172096 46.98807221302455 3.8681255833120027 14.416753544472373 0 0 0
281 8 30 0.108296 3.5834053975414024 25.84206614046984 8.954030977194797 0 0 0
261 8 8 -0.427904 4.0526886868552205 23.75931619068403 10.61543455010895 0 0 0
286 8 35 0.425996 4.307986464767211 19.943773333058335 12.180179541063767 0 0 0
283 8 32 0.139396 3.931310384264794 22.330544891201395 12.87146016628649 0 0 0
259 8 6 -0.218404 2.523908080888423 25.65305986357507 9.117361957416737 0 0 0
278 8 26 0.110596 3.629476634231044 26.161171310511367 12.065596564260376 0 0 0
260 8 7 0.447396 2.9282274291822157 24.04496714000099 11.04082538391146 0 0 0
263 8 10 -0.026504 2.8813398780333004 22.172288253736625 12.610394092968052 0 0 0
279 8 28 0.108296 1.9691937811149278 26.501680111502917 8.716870106333843 0 0 0
280 8 29 0.108296 2.2931097014728583 24.7958491535347 8.483409940472926 0 0 0
257 8 4 -0.020104 2.200561783304166 25.372465451476124 10.613118943623267 0 0 0
265 8 12 -0.570604 3.364922022397262 19.835255623729033 12.200258908538622 0 0 0
284 8 33 0.128996 3.1488723881905907 21.207409924955904 10.660211307658049 0 0 0
262 8 9 -0.355004 2.3174494832841086 23.37095019702713 12.062174038016764 0 0 0
282 8 31 0.139396 2.374664358786652 21.944791465125384 13.55036193169784 0 0 0
264 8 11 -0.010704 2.7320426147841657 20.978031414741487 11.646057174712384 0 0 0
258 8 5 -0.223004 2.7730895197663097 26.571551035682536 11.50805392057361 0 0 0
277 8 25 0.110596 2.062530454797665 26.579121567197735 12.34022474912268 0 0 0
285 8 34 0.128996 1.6749681527119213 20.756442886756243 11.479740143384138 0 0 0
273 8 20 0.109896 0.8970364003077607 22.516332565804536 9.982202446508488 0 0 0
1644 54 49 0.159896 5.1954969286634975 27.717534797703266 11.363655327445997 0 0 0
1645 54 50 0.159896 4.339104061673954 27.79555425229459 9.72951328955457 0 0 0
1646 54 51 0.110796 3.9843778241762022 28.036403935254842 13.502501901421933 0 0 0
256 8 3 -0.158104 0.6196581972254995 25.300850405872968 10.80729167432249 0 0 0
1636 54 41 -0.154904 4.330161450517152 28.05155187248154 10.788787057873254 0 0 0
1637 54 42 -0.154504 3.1262336951640317 28.169345694075247 11.452220776764806 0 0 0
2382 94 81 0.163896 13.80174642784414 16.68475439770089 8.74439154303791 0 0 0
1647 54 52 0.110796 2.2625104067351156 28.401430843808342 13.500364755207228 0 0 0
275 8 23 0.128296 0.45239062220456877 25.175534149648843 11.877727498058173 0 0 0
276 8 24 0.128296 0.23216416801837375 26.2943491628006 10.590439739640898 0 0 0
1638 54 43 -0.175504 3.1958888898980584 28.5595963456499 12.956219525380565 0 0 0
715 20 33 0.128996 13.443683290804893 28.294332342915936 13.66356811745006 0 0 0
1639 54 44 0.494396 1.9164163876979174 28.59625779588585 10.692753584906283 0 0 0
1641 54 46 -0.339804 0.7704194528767485 28.589445199179934 11.44847609279077 0 0 0
271 8 18 -0.437704 1.3165023240714828 21.8002968146012 4.921280364844149 0 0 0
2453 97 73 -0.392404 1.2976028424324302 19.607205705163977 2.4481442060366505 1 0 0
2306 91 83 0.164996 13.526687757895106 22.130294670014475 1.3131726468720015 0 0 1
2452 97 72 0.463096 0.26389434131168954 20.234246741286487 2.2545490016630083 1 0 0
2293 91 69 -0.162104 13.875637172667421 22.200639900147422 0.2925461188831609 0 0 1
1555 49 45 -0.438004 7.727456041484826 28.67482459521158 11.760864311678674 0 0 0
2464 97 85 0.492096 0.3011922296264656 19.519385388001815 0.673600664093439 1 0 0
1562 49 52 0.110796 7.127911372599867 28.41191056214486 8.032240866748028 0 0 0
2459 97 80 0.201296 0.24823569431011436 19.018927979126442 5.367173069564678 1 0 0
287 8 36 0.138496 1.1012407047809385 24.11146432464935 6.135235505954687 0 0 0
695 20 11 -0.010704 12.779059495348372 28.897397010165758 14.28795033417024 0 0 0
696 20 12 -0.570604 11.46406042338638 28.35938798442356 14.308072006037875 0 0 0
1640 54 45 -0.438004 1.9230723728850747 28.96884579243944 9.513851794068641 0 0 0
2367 94 65 0.456396 14.181828158152449 17.720954642100722 11.151547908887135 0 0 0
269 8 16 -0.027204 0.21813544641079627 23.515451177152606 6.366140021377077 0 0 0
270 8 17 -0.011604 0.4116571157272878 22.06161600562458 5.935114720060714 0 0 0
2439 97 59 -0.952704 0.19077642571655065 21.66835200228662 4.434115993850937 1 0 0
2455 97 75 0.403896 0.2759820251312824 22.6189664202497 4.142900259443876 1 0 0
2383 94 82 0.162596 15.05463464019926 16.190042639929434 6.573317170809204 0 0 0
2369 94 67 -0.154604 14.833385858774776 16.96023909215878 8.591819874538158 0 0 0
2307 91 84 0.166296 16.011976309865144 22.085305828740886 0.8376184970262103 0 0 1
2370 94 68 -0.107804 15.554159063724954 16.694651993239226 7.389448683584169 0 0 0
69 2 36 0.138496 21.167417837517778 24.471416957441708 2.284494177338838 0 0 1
64 2 31 0.139396 16.600249933714185 25.550009709778468 8.946892608035798 0 0 1
2381 94 80 0.201296 15.963192189274354 18.869911681013882 12.549039672459443 0 0 0
2368 94 66 0.112796 15.60482311922608 17.61796908058692 9.558356578742817 0 0 0
67 2 34 0.128996 15.99642996949769 23.470468991288037 7.977742539437129 0 0 1
2384 94 83 0.164996 17.457401007102053 16.852780175480394 6.328270360470426 0 0 0
65 2 32 0.139396 18.1137683849741 24.695159538064004 8.94359753715375 0 0 1
45 2 10 -0.026504 17.360743004943767 25.138173884744074 8.282111556254822 0 0 1
2371 94 69 -0.162104 16.933721326775345 17.0717990971104 7.247941818562899 0 0 0
2372 94 70 -0.081004 17.641604089532 17.738516770534147 8.300103599084482 0 0 0
2366 94 64 -0.598304 15.098824820430579 17.920461726051837 10.78875701838256 0 0 0
2385 94 84 0.166296 18.674875337018964 18.01817724215833 8.169070348496666 0 0 0
2373 94 71 -0.069404 16.939905254311128 18.031129462881673 9.494747738385135 0 0 0
2364 94 62 -0.175304 17.22573381891021 18.691740082549142 10.721779537949327 0 0 0
2365 94 63 0.022996 16.109172547741345 18.548889081723154 11.523281595028157 0 0 0
2375 94 73 -0.392404 19.573427509847757 20.428968291820976 7.744790277258891 0 0 0
2379 94 78 0.133996 18.22294190488343 20.268535878789027 11.703025873496212 0 0 0
2021 76 52 0.110796 24.798781177778555 17.030893528595872 10.907406340963927 0 0 0
2376 94 74 -0.530304 18.06110232858594 21.431995199718738 9.023516569422256 0 0 0
2374 94 72 0.463096 19.174356745958622 20.64163391857517 8.893058999168957 0 0 0
2380 94 79 0.133996 18.96868049663001 18.71999813338559 11.870562632904834 0 0 0
2020 76 51 0.110796 24.290885301582534 16.100153650644483 12.434198182821845 0 0 0
2363 94 61 -0.108704 18.52077307552545 19.38852841774505 11.134650467084395 0 0 0
2386 94 85 0.492096 17.97135021109629 21.79915197070643 8.145449811508701 0 0 0
2362 94 60 0.010296 19.813498436098673 19.891544632550254 10.240247556997913 0 0 0
68 2 35 0.425996 18.25095765795027 23.64583723259286 6.279176973753345 0 0 1
940 27 4 -0.020104 27.607827968258903 21.374096759084203 11.994514708942575 0 0 0
942 27 6 -0.218404 26.372575352559856 22.315609570364344 12.158113651408165 0 0 0
943 27 7 0.447396 28.000381893847052 21.206808347121886 10.488948398253255 0 0 0
945 27 9 -0.355004 26.985085071377473 21.51859749085899 9.65052528306848 0 0 0
946 27 10 -0.026504 27.028011090187604 21.412458436312924 8.233935513847374 0 0 0
947 27 11 -0.010704 25.54929879285022 21.433621039160982 7.786473407784979 0 0 0
948 27 12 -0.570604 25.368313625922763 22.29476190255922 6.670285530038387 0 0 0
949 27 13 0.443896 25.002297032683696 19.57929830481575 11.48579500800416 0 0 0
952 27 16 -0.027204 23.246602460648255 21.14664338043993 12.255696849119397 0 0 0
953 27 17 -0.011604 22.360215031158678 20.009805709029862 11.600541169211768 0 0 0
963 27 29 0.108296 25.93214374254555 22.275443841897104 13.154293336311802 0 0 0
964 27 30 0.108296 25.598316223787528 22.10677478410512 11.4315764425605 0 0 0
965 27 31 0.139396 27.525947780864534 20.50169007890596 7.891301753922254 0 0 0
966 27 32 0.139396 27.59589751425176 22.250971233505247 7.826286795962808 0 0 0
967 27 33 0.128996 24.900785363361017 21.77595566322718 8.60024999435616 0 0 0
968 27 34 0.128996 25.207888605607877 20.41503555949037 7.577800638921013 0 0 0
969 27 35 0.425996 24.442630361194933 22.335920637761006 6.452949069228761 0 0 0
2191 86 52 0.110796 27.090507303863404 25.25523474776236 12.740541562269724 0 0 0
2012 76 43 -0.175504 25.068930679969636 16.622624291531913 11.888171823125509 0 0 0
2185 86 46 -0.339804 27.36641271240945 25.18581504659827 10.311749827693655 0 0 0
2193 86 54 0.130796 26.421832643449342 24.099435769704733 8.819129793968843 0 0 0
2011 76 42 -0.154504 25.937357115781158 17.444059333922908 12.873338808131534 0 0 0
47 2 12 -0.570604 17.692960444174894 23.16273620032884 6.896230154518092 0 0 1
2186 86 47 0.011796 26.670747055347764 25.135992420689266 9.060752123751111 0 0 0
962 27 28 0.108296 26.594486368329868 23.34978206801874 11.949284378338795 0 0 0
2195 86 56 0.109196 24.78963951314559 25.767192711783277 8.225354194964329 0 0 0
46 2 11 -0.010704 16.71170953918647 24.055928554066107 7.393167915999917 0 0 1
66 2 33 0.128996 16.149741942548058 24.50141309808272 6.568626341393672 0 0 1
43 2 8 -0.427904 19.859212481559116 25.197866715610036 6.992744233301812 0 0 1
1151 32 33 0.128996 27.477828110642243 15.22824302254704 2.847455554944774 0 0 1
2194 86 55 0.130796 27.312899690326855 25.49160817745149 8.249253184982308 0 0 0
50 2 15 -0.351004 19.61677094255768 25.626728846592094 2.999896912740082 0 0 1
49 2 14 -0.432404 18.14636789695781 24.781060157955533 4.520184271471325 0 0 1
2187 86 48 -0.263904 25.37430066658861 25.965107256389445 9.128396783173098 0 0 0
51 2 16 -0.027204 20.1495911866851 24.327860181966575 2.647895115767629 0 0 1
70 2 37 0.138496 20.243328558596236 23.671119579071572 3.515753480102247 0 0 1
48 2 13 0.443896 18.588195360644388 25.743780637795247 3.8808213871652617 0 0 1
2378 94 77 0.172096 20.082943828845846 18.946522959998962 9.74258017613249 0 0 0
2361 94 59 -0.952704 21.418516682390926 20.56057467972407 11.21130633156027 0 0 0
2022 76 53 0.110796 25.472464369805866 15.650997929615885 11.638258797469627 0 0 0
52 2 17 -0.011604 19.306647469981776 23.64156733125474 1.5388170620420898 0 0 1
2196 86 58 0.109196 24.76293000712834 25.560932845637662 9.942375971717242 0 0 0
2170 85 48 -0.263904 25.06048001638721 27.405274084556506 8.631872836741678 0 0 1
42 2 7 0.447396 19.104837325153056 26.170812165203944 6.914150639782692 0 0 1
44 2 9 -0.355004 17.884566802275017 26.24013659353929 7.525156312318382 0 0 1
2174 85 52 0.110796 20.944453040165172 26.803331990870916 8.84250750517889 0 0 1
237 7 24 0.128296 17.61177052032337 26.46075557960056 1.3449055093546658 0 0 1
2177 85 55 0.130796 24.2660783963472 28.161705834717928 6.744185316204179 0 0 1
2179 85 58 0.109196 26.107818141919882 27.602865619371816 8.386318819499497 0 0 1
2178 85 56 0.109196 24.931828512041395 27.66854726139472 9.683187524853759 0 0 1
63 2 30 0.108296 21.707827813474655 26.98887710978918 6.308146556634854 0 0 1
62 2 29 0.108296 20.96827757323066 26.688707405822807 4.77339737266627 0 0 1
951 27 15 -0.351004 24.35304017954654 20.271836321544345 12.488094622922407 0 0 0
950 27 14 -0.432404 24.667466943565977 19.615657596383688 10.295300636978785 0 0 0
938 27 2 -0.093504 26.3096462416188 18.827146518154944 11.973541594837469 0 0 0
939 27 3 -0.158104 27.27286583919425 19.945938043669173 12.654621235693968 0 0 0
958 27 23 0.128296 26.900597815960325 20.13663438123059 13.65976772704256 0 0 0
937 27 1 -0.221104 27.11199386783652 18.3455439163495 10.671723677266982 0 0 0
2013 76 44 0.494396 27.31582867791656 16.929216088994064 13.103142900437923 0 0 0
955 27 19 0.109896 26.85008571944133 17.359325367378595 10.296789828557861 0 0 0
956 27 20 0.109896 26.959053399245104 18.968645404687987 9.795197625240064 0 0 0
55 2 20 0.109896 16.333739416189758 26.598216658238794 5.446111151301748 0 0 1
891 25 31 0.139396 27.344883029782256 28.26391719105945 11.986651875034763 0 0 1
2015 76 46 -0.339804 27.691915804586394 16.014659807648776 12.175272804159054 0 0 0
236 7 23 0.128296 16.130348910366028 27.079564141228218 1.9257601262984387 0 0 1
2617 103 82 0.162596 21.737076101341483 26.221934632752934 14.198874379103485 0 0 0
234 7 20 0.109896 19.697468338090662 27.503697136924657 1.5354232122583593 0 0 1
217 7 3 -0.158104 17.091820519004536 27.404465540826255 1.535498452975324 0 0 1
2173 85 51 0.110796 20.980602230911984 27.645038111415616 10.348684282344989 0 0 1
2175 85 53 0.110796 19.438156371494152 27.355868003135953 9.591391048550692 0 0 1
2165 85 43 -0.175504 20.476183970880893 27.630589245492732 9.382575719689326 0 0 1
2169 85 47 0.011796 24.222936049591254 28.397913335424917 7.810920733766661 0 0 1
37 2 2 -0.093504 17.925841148394653 27.182158045223073 3.9990186020531686 0 0 1
56 2 21 0.109896 15.982027228575975 26.06277244377466 3.8425245056988446 0 0 1
41 2 6 -0.218404 20.97025964551986 27.385030072681655 5.609496151146632 0 0 1
39 2 4 -0.020104 19.568240420967534 27.526080622216227 6.276286218364337 0 0 1
959 27 24 0.128296 28.235434746147686 19.469624554332214 12.843230133788927 0 0 0
2014 76 45 -0.438004 28.045400452061568 17.230757621619325 14.057020616324793 0 0 0
2182 86 43 -0.175504 28.153477149273346 25.344724900322003 12.957630956065099 0 0 0
2183 86 44 0.494396 28.520861153905894 24.470171087864014 10.5012406876438 0 0 0
36 2 1 -0.221104 16.41498429648002 26.895654369315498 4.400877083629152 0 0 1
960 27 25 0.110596 28.369992825599674 22.358952988726667 13.7365083819899 0 0 0
2192 86 53 0.110796 28.322309545423444 26.42339185146187 12.997830397298083 0 0 0
2025 76 56 0.109196 28.2368594327165 14.671685995768009 10.23648948248257 0 0 0
1152 32 34 0.128996 28.61945379184711 16.12739090622425 1.8711630632361824 0 0 1
2168 85 46 -0.339804 22.8835967742137 28.3194722133565 8.28831855439449 0 0 1
957 27 21 0.109896 28.19039208302062 18.30729530737952 10.826919298503848 0 0 0
1130 32 11 -0.010704 28.52364093132314 15.25947919971933 2.528349989988007 0 0 1
2618 103 83 0.164996 22.150315021295746 28.689974960236864 14.161097635091068 0 0 0
2018 76 49 0.159896 24.296688064997767 18.34012270840669 13.828869378801759 0 0 0
2010 76 41 -0.154904 25.29402431637396 17.91944256013379 13.992363031437815 0 0 0
2190 86 51 0.110796 28.277961830019088 24.973516990211497 13.977342126947818 0 0 0
54 2 19 0.109896 15.722743235736067 27.7228643005617 4.282128605555555 0 0 1
216 7 2 -0.093504 17.889473133627956 28.17145183073457 2.685594804793961 0 0 1
38 2 3 -0.158104 18.537107112816898 28.063439534953016 5.198086546453566 0 0 1
53 2 18 -0.437704 18.821836418158163 22.327715140236155 1.7292495190433288 0 0 1
215 7 1 -0.221104 19.40773995471159 28.287838290734477 2.236045127328317 0 0 1
235 7 21 0.109896 20.127044618569244 28.217851744397954 3.0477794420311595 0 0 1
61 2 28 0.108296 21.353677457433438 28.335396935158727 5.234940118665474 0 0 1