LAMMPS data file Created by LigParGen - (Written by Leela S. Dodda)

      18 atoms
      17 bonds
      28 angles
      28 dihedrals
       9 impropers
 
      18 atom types
      17 bond types
      28 angle types
      28 dihedral types
       9 improper types
 
   -4.135930    45.864070 xlo xhi
    0.112960    50.112960 ylo yhi
   -3.197160    46.802840 zlo zhi

Masses

       1     12.011  
       2     12.011  
       3     12.011  
       4     12.011  
       5     15.999  
       6     15.999  
       7     12.011  
       8     12.011  
       9      1.008  
      10      1.008  
      11      1.008  
      12      1.008  
      13      1.008  
      14      1.008  
      15      1.008  
      16      1.008  
      17      1.008  
      18      1.008  

Pair Coeffs 

       1      0.076  3.5500000 
       2      0.076  3.5500000 
       3      0.066  3.5000000 
       4      0.070  3.5500000 
       5      0.210  2.9600000 
       6      0.140  2.9000000 
       7      0.066  3.5000000 
       8      0.066  3.5000000 
       9      0.030  2.5000000 
      10      0.030  2.5000000 
      11      0.030  2.5000000 
      12      0.030  2.5000000 
      13      0.030  2.5000000 
      14      0.030  2.5000000 
      15      0.030  2.5000000 
      16      0.030  2.5000000 
      17      0.030  2.5000000 
      18      0.030  2.5000000 

Bond Coeffs 

       1   549.0000     1.3400 
       2   317.0000     1.5100 
       3   410.0000     1.4440 
       4   570.0000     1.2290 
       5   214.0000     1.3270 
       6   320.0000     1.4100 
       7   268.0000     1.5290 
       8   340.0000     1.0800 
       9   340.0000     1.0800 
      10   340.0000     1.0900 
      11   340.0000     1.0900 
      12   340.0000     1.0900 
      13   340.0000     1.0900 
      14   340.0000     1.0900 
      15   340.0000     1.0900 
      16   340.0000     1.0900 
      17   340.0000     1.0900 

Angle Coeffs 

       1     70.000    124.000
       2     85.000    120.700
       3     80.000    125.300
       4     81.000    111.400
       5     83.000    116.900
       6     50.000    109.500
       7     35.000    120.000
       8     35.000    120.000
       9     35.000    109.500
      10     35.000    109.500
      11     35.000    109.500
      12     35.000    109.500
      13     35.000    109.500
      14     37.500    110.700
      15     37.500    110.700
      16     37.500    110.700
      17     83.000    123.400
      18     33.000    107.800
      19     33.000    107.800
      20     37.500    110.700
      21     35.000    117.000
      22     33.000    107.800
      23     33.000    107.800
      24     33.000    107.800
      25     33.000    107.800
      26     33.000    107.800
      27     70.000    119.700
      28     37.500    110.700

Dihedral Coeffs  

       1      2.500      6.000      0.000      0.000 
       2      4.669      5.124      0.000      0.000 
       3     -1.220     -0.126      0.422      0.000 
       4      0.000     14.000      0.000      0.000 
       5      0.000      0.000     -0.372      0.000 
       6      0.000      0.000      0.468      0.000 
       7      0.000     14.000      0.000      0.000 
       8      0.900      0.230     -0.505      0.000 
       9      0.000      0.000      0.300      0.000 
      10      0.000      0.000      0.300      0.000 
      11      0.000      0.000      0.468      0.000 
      12      0.000      0.000     -0.372      0.000 
      13      0.000      0.000     -0.372      0.000 
      14      0.000      0.000     -0.372      0.000 
      15      3.200     -3.000      0.000      0.000 
      16      0.000      0.000      0.300      0.000 
      17      0.000      0.000      0.468      0.000 
      18      0.000      0.000      0.300      0.000 
      19      0.000      0.000      0.300      0.000 
      20      0.000      0.000      0.300      0.000 
      21      0.900      0.230     -0.505      0.000 
      22      0.000     14.000      0.000      0.000 
      23      0.000     14.000      0.000      0.000 
      24      0.000      0.000      0.198      0.000 
      25      0.000      0.000     -0.372      0.000 
      26      0.000      0.000     -0.372      0.000 
      27      0.000      5.124      0.000      0.000 
      28      0.000      0.000      0.198      0.000 

Improper Coeffs 

       1      2.500      -1       2 
       2     10.500      -1       2 
       3      2.500      -1       2 
       4      0.000      -1       2 
       5      0.000      -1       2 
       6      0.000      -1       2 
       7      0.000      -1       2 
       8      0.000      -1       2 
       9      0.000      -1       2 

Atoms 

     1      1      1 -0.16720000    1.000  1.00000  0.00000
     2      1      2 -0.16680000   -0.343  1.00000  0.00000
     3      1      3 -0.18780000   -1.156  1.00000  1.25635
     4      1      4 0.48210000   -1.034  1.08520 -1.31915
     5      1      5 -0.45030000   -0.458  1.15462 -2.39401
     6      1      6 -0.35210000   -2.373  1.17328 -1.12310
     7      1      7 -0.00050000   -3.119  1.67104 -2.23670
     8      1      8 -0.27620000   -3.142  3.18835 -2.14497
     9      1      9 0.14760000    1.567  1.00000  0.92527
    10      1     10 0.14760000    1.570  1.00117 -0.92606
    11      1     11 0.09850000   -0.522  1.00000  2.14922
    12      1     12 0.09850000   -1.796  0.11296  1.30166
    13      1     13 0.09850000   -1.787  1.89416  1.30782
    14      1     14 0.11850000   -4.136  1.27658 -2.16022
    15      1     15 0.11850000   -2.707  1.33329 -3.19716
    16      1     16 0.09690000   -3.586  3.49985 -1.19323
    17      1     17 0.09690000   -3.715  3.62801 -2.96459
    18      1     18 0.09690000   -2.125  3.59462 -2.16156

Bonds 

     1      1      2      1
     2      2      3      2
     3      3      4      2
     4      4      5      4
     5      5      6      4
     6      6      7      6
     7      7      8      7
     8      8      9      1
     9      9     10      1
    10     10     11      3
    11     11     12      3
    12     12     13      3
    13     13     14      7
    14     14     15      7
    15     15     16      8
    16     16     17      8
    17     17     18      8

Angles 

     1      1      1      2      3
     2      2      1      2      4
     3      3      2      4      5
     4      4      2      4      6
     5      5      4      6      7
     6      6      6      7      8
     7      7      2      1      9
     8      8      2      1     10
     9      9      2      3     11
    10     10      2      3     12
    11     11      2      3     13
    12     12      6      7     14
    13     13      6      7     15
    14     14      7      8     16
    15     15      7      8     17
    16     16      7      8     18
    17     17      5      4      6
    18     18     16      8     17
    19     19     14      7     15
    20     20      8      7     15
    21     21      9      1     10
    22     22     11      3     12
    23     23     17      8     18
    24     24     16      8     18
    25     25     11      3     13
    26     26     12      3     13
    27     27      3      2      4
    28     28      8      7     14

Dihedrals

     1      1      5      4      2      1 
     2      2      7      6      4      2 
     3      3      8      7      6      4 
     4      4      9      1      2      3 
     5      5     11      3      2      1 
     6      6     16      8      7      6 
     7      7     10      1      2      4 
     8      8      5      4      2      3 
     9      9     17      8      7     14 
    10     10     16      8      7     15 
    11     11     17      8      7      6 
    12     12     12      3      2      1 
    13     13     12      3      2      4 
    14     14     13      3      2      4 
    15     15      6      4      2      1 
    16     16     18      8      7     15 
    17     17     18      8      7      6 
    18     18     18      8      7     14 
    19     19     17      8      7     15 
    20     20     16      8      7     14 
    21     21      6      4      2      3 
    22     22     10      1      2      3 
    23     23      9      1      2      4 
    24     24     14      7      6      4 
    25     25     11      3      2      4 
    26     26     13      3      2      1 
    27     27      7      6      4      5 
    28     28     15      7      6      4 

Impropers

     1      1      2      1      3      4 
     2      2      4      2      5      6 
     3      3      1     10      9      2 
     4      4      3      2     12     11 
     5      5      3      2     13     11 
     6      6      7      8     14      6 
     7      7      7      8     15      6 
     8      8      8     17     16      7 
     9      9      8     18     16      7 

