LAMMPS data file Created by LigParGen - (Written by Leela S. Dodda)

      20 atoms
      19 bonds
      36 angles
      45 dihedrals
      12 impropers
 
      20 atom types
      19 bond types
      36 angle types
      45 dihedral types
      12 improper types
 
   -3.119480    46.880520 xlo xhi
   -1.120680    48.879320 ylo yhi
   -1.033920    48.966080 zlo zhi

Masses

       1     12.011  
       2     12.011  
       3     14.007  
       4     12.011  
       5     12.011  
       6     12.011  
       7      1.008  
       8      1.008  
       9      1.008  
      10      1.008  
      11      1.008  
      12      1.008  
      13      1.008  
      14      1.008  
      15      1.008  
      16      1.008  
      17      1.008  
      18      1.008  
      19      1.008  
      20      1.008

Atoms 

     1      1      1 -0.24650000    1.000  1.00000  0.00000
     2      1      2 -0.08630000   -0.520  1.00000  0.00000
     3      1      3 -0.05560000   -1.140  1.00000  1.40732
     4      1      4 -0.14890000   -0.726 -0.23314  2.20165
     5      1      5 -0.14880000   -0.763  2.25762  2.18199
     6      1      6 -0.15100000   -2.663  0.97311  1.24384
     7      1      7 0.11490000    1.362  1.00131 -1.03392
     8      1      8 0.11490000    1.410  0.10881  0.48257
     9      1      9 0.11490000    1.412  1.88784  0.48628
    10      1     10 0.13490000   -0.895  0.10874 -0.51631
    11      1     11 0.13490000   -0.897  1.88993 -0.51692
    12      1     12 0.13580000    0.344 -0.17273  2.41758
    13      1     13 0.13580000   -0.954 -1.12068  1.60443
    14      1     14 0.13580000   -1.289 -0.24470  3.13971
    15      1     15 0.13580000    0.309  2.23752  2.39222
    16      1     16 0.13580000   -1.322  2.26277  3.12267
    17      1     17 0.13580000   -1.024  3.12926  1.57493
    18      1     18 0.13590000   -2.936  0.06359  0.70029
    19      1     19 0.13590000   -2.966  1.86236  0.68280
    20      1     20 0.13590000   -3.119  0.97390  2.23854

Bonds 

     1      1      2      1
     2      2      3      2
     3      3      4      3
     4      4      5      3
     5      5      6      3
     6      6      7      1
     7      7      8      1
     8      8      9      1
     9      9     10      2
    10     10     11      2
    11     11     12      4
    12     12     13      4
    13     13     14      4
    14     14     15      5
    15     15     16      5
    16     16     17      5
    17     17     18      6
    18     18     19      6
    19     19     20      6

Angles 

     1      1      1      2      3
     2      2      2      3      4
     3      3      2      3      5
     4      4      2      3      6
     5      5      2      1      7
     6      6      2      1      8
     7      7      2      1      9
     8      8      1      2     10
     9      9      1      2     11
    10     10      3      4     12
    11     11      3      4     13
    12     12      3      4     14
    13     13      3      5     15
    14     14      3      5     16
    15     15      3      5     17
    16     16      3      6     18
    17     17      3      6     19
    18     18      3      6     20
    19     19     15      5     16
    20     20     13      4     14
    21     21     18      6     19
    22     22     15      5     17
    23     23     16      5     17
    24     24      4      3      5
    25     25      8      1      9
    26     26      3      2     11
    27     27     19      6     20
    28     28     10      2     11
    29     29      4      3      6
    30     30      7      1      9
    31     31     12      4     13
    32     32      7      1      8
    33     33      5      3      6
    34     34     12      4     14
    35     35     18      6     20
    36     36      3      2     10

Dihedrals

     1      1      4      3      2      1 
     2      2      7      1      2      3 
     3      3     12      4      3      2 
     4      4     15      5      3      2 
     5      5     18      6      3      2 
     6      6     15      5      3      6 
     7      7     20      6      3      5 
     8      8     14      4      3      6 
     9      9     13      4      3      6 
    10     10     14      4      3      5 
    11     11     20      6      3      4 
    12     12     14      4      3      2 
    13     13     16      5      3      6 
    14     14     17      5      3      2 
    15     15     17      5      3      4 
    16     16     15      5      3      4 
    17     17      5      3      2      1 
    18     18      9      1      2      3 
    19     19     17      5      3      6 
    20     20     11      2      1      7 
    21     21     19      6      3      5 
    22     22     10      2      3      5 
    23     23     11      2      3      5 
    24     24     10      2      3      6 
    25     25     18      6      3      5 
    26     26     19      6      3      4 
    27     27     11      2      1      9 
    28     28     12      4      3      6 
    29     29     10      2      1      9 
    30     30     13      4      3      5 
    31     31     12      4      3      5 
    32     32     11      2      3      6 
    33     33     18      6      3      4 
    34     34     10      2      1      7 
    35     35     20      6      3      2 
    36     36      6      3      2      1 
    37     37     16      5      3      2 
    38     38     19      6      3      2 
    39     39      8      1      2      3 
    40     40     10      2      1      8 
    41     41     11      2      1      8 
    42     42     13      4      3      2 
    43     43     16      5      3      4 
    44     44     11      2      3      4 
    45     45     10      2      3      4 

Impropers

     1      1      3      2      4      5 
     2      2      3      2      4      6 
     3      3      1      2      7      8 
     4      4      1      9      7      2 
     5      5      2      1     10      3 
     6      6      2      1     11      3 
     7      7      4     12      3     13 
     8      8      4     12      3     14 
     9      9      5      3     15     16 
    10     10      5     17      3     15 
    11     11      6     18     19      3 
    12     12      6     18      3     20 
