LAMMPS data file Created by LigParGen - (Written by Leela S. Dodda)

       5 atoms
       3 bonds
       3 angles
       0 dihedrals
       0 impropers
 
       5 atom types
       3 bond types
       3 angle types
       0 dihedral types
       0 improper types
 
   -1.097440    48.902560 xlo xhi
   -0.233780    49.766220 ylo yhi
   -1.033880    48.966120 zlo zhi

Masses

       1     32.060  
       2     15.999  
       3     15.999  
       4     15.999  
       5       1.080  

Pair Coeffs 

       1      0.250  3.5500000 
       2      0.170  2.9600000 
       3      0.170  2.9600000 
       4      0.170  2.9600000 

Bond Coeffs 

       1   700.0000     1.4400 
       2   700.0000     1.4400 
       3   700.0000     1.4400 

Angle Coeffs 

       1    104.000    119.000
       2    104.000    119.000
       3    104.000    119.000

Atoms 

     1      1      5  0.00000000    0.000  0.00000  0.00000
     2      1      1  1.30470000   -0.770  1.00000  0.00000
     3      1      2 -0.65840000   -1.097  1.00000  1.42398
     4      1      3 -0.65840000   -1.097  2.23384 -0.71097
     5      1      4 -0.65840000   -1.097 -0.23378 -0.71094

Bonds 

     1      1      2      3
     2      2      2      4
     3      3      2      5

Angles 

     1      1      3      2      4
     2      2      3      2      5
     3      3      4      2      5

