LAMMPS data file Created by LigParGen - (Written by Leela S. Dodda)

      48 atoms
      47 bonds
      84 angles
     115 dihedrals
      26 impropers
 
      48 atom types
      47 bond types
      84 angle types
     115 dihedral types
      26 improper types
 
   -5.719930    44.280070 xlo xhi
   -2.346060    47.653940 ylo yhi
   -2.484090    47.515910 zlo zhi

Masses

       1     12.011  
       2     12.011  
       3     12.011  
       4     12.011  
       5     12.011  
       6     12.011  
       7     12.011  
       8     15.999  
       9     15.999  
      10     12.011  
      11     12.011  
      12     15.999  
      13     12.011  
      14     15.999  
      15     12.011  
      16     15.999  
      17     15.999  
      18     12.011  
      19     12.011  
      20     15.999  
      21     12.011  
      22     15.999  
      23      1.008  
      24      1.008  
      25      1.008  
      26      1.008  
      27      1.008  
      28      1.008  
      29      1.008  
      30      1.008  
      31      1.008  
      32      1.008  
      33      1.008  
      34      1.008  
      35      1.008  
      36      1.008  
      37      1.008  
      38      1.008  
      39      1.008  
      40      1.008  
      41      1.008  
      42      1.008  
      43      1.008  
      44      1.008  
      45      1.008  
      46      1.008  
      47      1.008  
      48      1.008  

Pair Coeffs 

       1      0.066  3.5000000 
       2      0.066  3.5000000 
       3      0.066  3.5000000 
       4      0.066  3.5000000 
       5      0.066  3.5000000 
       6      0.066  3.5000000 
       7      0.070  3.5500000 
       8      0.210  2.9600000 
       9      0.140  2.9000000 
      10      0.066  3.5000000 
      11      0.066  3.5000000 
      12      0.170  3.1200000 
      13      0.066  3.5000000 
      14      0.170  3.1200000 
      15      0.070  3.5500000 
      16      0.210  2.9600000 
      17      0.140  2.9000000 
      18      0.066  3.5000000 
      19      0.066  3.5000000 
      20      0.170  3.1200000 
      21      0.066  3.5000000 
      22      0.170  3.1200000 
      23      0.030  2.5000000 
      24      0.030  2.5000000 
      25      0.030  2.5000000 
      26      0.030  2.5000000 
      27      0.030  2.5000000 
      28      0.030  2.5000000 
      29      0.030  2.5000000 
      30      0.030  2.5000000 
      31      0.030  2.5000000 
      32      0.030  2.5000000 
      33      0.030  2.5000000 
      34      0.030  2.5000000 
      35      0.030  2.5000000 
      36      0.030  2.5000000 
      37      0.030  2.5000000 
      38      0.000  0.0000000 
      39      0.030  2.5000000 
      40      0.030  2.5000000 
      41      0.000  0.0000000 
      42      0.030  2.5000000 
      43      0.030  2.5000000 
      44      0.030  2.5000000 
      45      0.000  0.0000000 
      46      0.030  2.5000000 
      47      0.030  2.5000000 
      48      0.000  0.0000000 

Bond Coeffs 

       1   268.0000     1.5290 
       2   268.0000     1.5290 
       3   268.0000     1.5290 
       4   268.0000     1.5290 
       5   268.0000     1.5290 
       6   317.0000     1.5220 
       7   570.0000     1.2290 
       8   214.0000     1.3270 
       9   320.0000     1.4100 
      10   268.0000     1.5290 
      11   320.0000     1.4100 
      12   268.0000     1.5290 
      13   320.0000     1.4100 
      14   317.0000     1.5220 
      15   570.0000     1.2290 
      16   214.0000     1.3270 
      17   320.0000     1.4100 
      18   268.0000     1.5290 
      19   320.0000     1.4100 
      20   268.0000     1.5290 
      21   320.0000     1.4100 
      22   340.0000     1.0900 
      23   340.0000     1.0900 
      24   340.0000     1.0900 
      25   340.0000     1.0900 
      26   340.0000     1.0900 
      27   340.0000     1.0900 
      28   340.0000     1.0900 
      29   340.0000     1.0900 
      30   340.0000     1.0900 
      31   340.0000     1.0900 
      32   340.0000     1.0900 
      33   340.0000     1.0900 
      34   340.0000     1.0900 
      35   340.0000     1.0900 
      36   340.0000     1.0900 
      37   553.0000     0.9450 
      38   340.0000     1.0900 
      39   340.0000     1.0900 
      40   553.0000     0.9450 
      41   340.0000     1.0900 
      42   340.0000     1.0900 
      43   340.0000     1.0900 
      44   553.0000     0.9450 
      45   340.0000     1.0900 
      46   340.0000     1.0900 
      47   553.0000     0.9450 

Angle Coeffs 

       1     58.350    112.700
       2     58.350    112.700
       3     58.350    112.700
       4     58.350    112.700
       5     63.000    111.100
       6     80.000    120.400
       7     81.000    111.400
       8     83.000    116.900
       9     50.000    109.500
      10     50.000    109.500
      11     58.350    112.700
      12     50.000    109.500
      13     63.000    111.100
      14     80.000    120.400
      15     81.000    111.400
      16     83.000    116.900
      17     50.000    109.500
      18     50.000    109.500
      19     58.350    112.700
      20     50.000    109.500
      21     37.500    110.700
      22     37.500    110.700
      23     37.500    110.700
      24     37.500    110.700
      25     37.500    110.700
      26     37.500    110.700
      27     37.500    110.700
      28     37.500    110.700
      29     37.500    110.700
      30     37.500    110.700
      31     37.500    110.700
      32     37.500    110.700
      33     35.000    109.500
      34     35.000    109.500
      35     37.500    110.700
      36     55.000    108.500
      37     37.500    110.700
      38     37.500    110.700
      39     55.000    108.500
      40     35.000    109.500
      41     35.000    109.500
      42     37.500    110.700
      43     55.000    108.500
      44     37.500    110.700
      45     37.500    110.700
      46     55.000    108.500
      47     58.350    112.700
      48     35.000    109.500
      49     35.000    109.500
      50     37.500    110.700
      51     33.000    107.800
      52     63.000    111.100
      53     35.000    109.500
      54     63.000    111.100
      55     33.000    107.800
      56     35.000    109.500
      57     33.000    107.800
      58     83.000    123.400
      59     33.000    107.800
      60     37.500    110.700
      61     33.000    107.800
      62     37.500    110.700
      63     35.000    109.500
      64     37.500    110.700
      65     33.000    107.800
      66     33.000    107.800
      67     33.000    107.800
      68     50.000    109.500
      69     33.000    107.800
      70     37.500    110.700
      71     83.000    123.400
      72     37.500    110.700
      73     37.500    110.700
      74     33.000    107.800
      75     33.000    107.800
      76     33.000    107.800
      77     50.000    109.500
      78     35.000    109.500
      79     35.000    109.500
      80     37.500    110.700
      81     33.000    107.800
      82     63.000    111.100
      83     37.500    110.700
      84     33.000    107.800

Dihedral Coeffs  

       1      1.300     -0.200      0.200      0.000 
       2      1.300     -0.200      0.200      0.000 
       3      0.000      0.000      0.000      0.000 
       4      4.669      5.124      0.000      0.000 
       5     -1.220     -0.126      0.422      0.000 
       6      4.319      0.000      0.000      0.000 
       7     -1.552      0.000      0.000      0.000 
       8      0.000      0.000      0.000      0.000 
       9      4.669      5.124      0.000      0.000 
      10     -1.220     -0.126      0.422      0.000 
      11      4.319      0.000      0.000      0.000 
      12     -1.552      0.000      0.000      0.000 
      13      0.000      0.000      0.300      0.000 
      14      0.000      0.000      0.300      0.000 
      15      0.000      0.000      0.300      0.000 
      16     -0.356     -0.174      0.492      0.000 
      17     -0.356     -0.174      0.492      0.000 
      18     -0.356     -0.174      0.492      0.000 
      19     -0.356     -0.174      0.492      0.000 
      20      0.000      0.000      0.300      0.000 
      21      0.000      0.000      0.300      0.000 
      22      0.000      0.000      0.468      0.000 
      23      1.711     -0.500      0.663      0.000 
      24      0.000      0.000      0.198      0.000 
      25      0.000      0.000      0.300      0.000 
      26      0.000      0.000      0.468      0.000 
      27      0.000      0.000      0.468      0.000 
      28     -0.356     -0.174      0.492      0.000 
      29      0.000      0.000     -0.100      0.000 
      30      0.000      0.000     -0.100      0.000 
      31      0.000      0.000      0.300      0.000 
      32      0.000      0.000      0.300      0.000 
      33      0.000      0.000     -0.100      0.000 
      34      0.000      0.000      0.300      0.000 
      35      0.000      0.000      0.300      0.000 
      36      0.000      0.000      0.300      0.000 
      37      0.000      0.000      0.468      0.000 
      38      0.000      0.000      0.198      0.000 
      39      0.000      0.000      0.468      0.000 
      40      0.000      0.000      0.198      0.000 
      41      0.000      0.000     -0.100      0.000 
      42      0.000      0.000      0.300      0.000 
      43      9.508      0.000      0.000      0.000 
      44      0.000      0.000     -0.100      0.000 
      45      0.000      0.000      0.300      0.000 
      46      0.000      0.000      0.300      0.000 
      47      0.000      5.124      0.000      0.000 
      48      0.000      0.000      0.300      0.000 
      49      0.000      0.000      0.300      0.000 
      50      0.000      0.000      0.300      0.000 
      51      0.000      0.000      0.300      0.000 
      52      1.300     -0.200      0.200      0.000 
      53      0.000      0.000      0.300      0.000 
      54      0.000      0.000      0.300      0.000 
      55      1.711     -0.500      0.663      0.000 
      56      0.000      0.000     -0.553      0.000 
      57      0.000      0.000      0.300      0.000 
      58      0.000      0.000      0.468      0.000 
      59      0.000      0.000      0.300      0.000 
      60      0.000      0.000     -0.100      0.000 
      61      0.000      0.000      0.300      0.000 
      62      0.000      0.000      0.300      0.000 
      63      0.000      0.000      0.300      0.000 
      64      0.000      0.000      0.300      0.000 
      65     -0.356     -0.174      0.492      0.000 
      66      0.000      0.000      0.300      0.000 
      67      0.000      0.000     -0.100      0.000 
      68      0.000      0.000      0.468      0.000 
      69      0.000      0.000      0.300      0.000 
      70      0.000      0.000      0.468      0.000 
      71      0.000      0.000      0.468      0.000 
      72      0.000      0.000     -0.100      0.000 
      73     -2.060     -0.313      0.315      0.000 
      74      0.000      0.000      0.300      0.000 
      75      0.000      0.000      0.300      0.000 
      76      0.000      0.000      0.300      0.000 
      77      0.000      0.000      0.300      0.000 
      78      9.508      0.000      0.000      0.000 
      79      0.000      0.000     -0.100      0.000 
      80      0.000      0.000      0.000      0.000 
      81      0.000      0.000      0.198      0.000 
      82      0.000      0.000      0.352      0.000 
      83      0.000      0.000      0.300      0.000 
      84      0.000      0.000      0.000      0.000 
      85      0.000      0.000      0.000      0.000 
      86      0.000      0.000     -0.553      0.000 
      87      0.000      0.000      0.300      0.000 
      88      0.000      0.000      0.352      0.000 
      89      0.000      0.000      0.352      0.000 
      90      0.000      0.000      0.300      0.000 
      91      0.000      0.000     -0.553      0.000 
      92      0.000      0.000     -0.100      0.000 
      93     -2.060     -0.313      0.315      0.000 
      94      0.000      0.000      0.000      0.000 
      95      0.000      0.000      0.468      0.000 
      96      0.000      0.000     -0.553      0.000 
      97      0.000      0.000      0.352      0.000 
      98      0.000      0.000      0.352      0.000 
      99      0.000      0.000      0.300      0.000 
     100      0.000      0.000     -0.553      0.000 
     101      0.000      5.124      0.000      0.000 
     102      0.000      0.000      0.300      0.000 
     103      0.000      0.000      0.300      0.000 
     104      0.000      0.000      0.468      0.000 
     105      0.000      0.000      0.300      0.000 
     106      0.000      0.000     -0.100      0.000 
     107      0.000      0.000     -0.100      0.000 
     108      0.000      0.000      0.300      0.000 
     109      0.000      0.000      0.300      0.000 
     110      0.000      0.000      0.300      0.000 
     111      0.000      0.000      0.468      0.000 
     112      0.000      0.000      0.132      0.000 
     113      0.000      0.000     -0.100      0.000 
     114      0.000      0.000      0.352      0.000 
     115      0.000      0.000      0.300      0.000 

Improper Coeffs 

       1      0.000      -1       2 
       2      0.000      -1       2 
       3     10.500      -1       2 
       4      0.000      -1       2 
       5      0.000      -1       2 
       6     10.500      -1       2 
       7      0.000      -1       2 
       8      0.000      -1       2 
       9      0.000      -1       2 
      10      0.000      -1       2 
      11      0.000      -1       2 
      12      0.000      -1       2 
      13      0.000      -1       2 
      14      0.000      -1       2 
      15      0.000      -1       2 
      16      0.000      -1       2 
      17      0.000      -1       2 
      18      0.000      -1       2 
      19      0.000      -1       2 
      20      0.000      -1       2 
      21      0.000      -1       2 
      22      0.000      -1       2 
      23      0.000      -1       2 
      24      0.000      -1       2 
      25      0.000      -1       2 
      26      0.000      -1       2 

Atoms 

     1      1      1 -0.23690000    1.000  1.00000  0.00000
     2      1      2 -0.10200000   -0.525  1.00000  0.00000
     3      1      3 -0.16940000   -1.171  1.00000  1.39916
     4      1      4 -0.02790000   -0.938 -0.18229  2.38046
     5      1      5 -0.23380000   -1.359 -1.51163  1.73624
     6      1      6 -0.23280000    0.507 -0.28832  2.88345
     7      1      7 0.45470000   -1.842  0.07052  3.60061
     8      1      8 -0.45010000   -2.748 -0.66432  3.97350
     9      1      9 -0.35530000   -1.547  1.27720  4.16931
    10      1     10 -0.03060000   -2.620  1.87117  4.92069
    11      1     11 -0.01330000   -3.550  2.61585  3.94929
    12      1     12 -0.57850000   -4.155  1.71158  3.01224
    13      1     13 -0.02050000   -4.653  3.37576  4.68868
    14      1     14 -0.57820000   -5.505  4.06204  3.77104
    15      1     15 0.44820000   -1.001  2.26880 -0.68724
    16      1     16 -0.46020000   -0.441  3.35684 -0.61161
    17      1     17 -0.34870000   -2.200  2.05519 -1.30604
    18      1     18 -0.03610000   -2.920  3.25368 -1.64355
    19      1     19 -0.00710000   -3.749  3.70814 -0.43143
    20      1     20 -0.58490000   -2.916  3.99584  0.70287
    21      1     21 -0.02030000   -4.576  4.95429 -0.75891
    22      1     22 -0.57530000   -5.391  5.33961  0.34778
    23      1     23 0.09680000    1.395  0.00261  0.20522
    24      1     24 0.09680000    1.400  1.69696  0.74448
    25      1     25 0.09680000    1.394  1.30148 -0.97747
    26      1     26 0.13380000   -0.869  0.14383 -0.59130
    27      1     27 0.12470000   -2.258  1.08259  1.24671
    28      1     28 0.12470000   -0.891  1.94041  1.89563
    29      1     29 0.09750000   -0.769 -1.73396  0.84224
    30      1     30 0.09750000   -2.417 -1.49262  1.44734
    31      1     31 0.09750000   -1.227 -2.34606  2.43506
    32      1     32 0.09550000    1.158 -0.77937  2.15639
    33      1     33 0.09550000    0.560 -0.88131  3.80390
    34      1     34 0.09550000    0.926  0.69861  3.10786
    35      1     35 0.12670000   -2.165  2.57584  5.62473
    36      1     36 0.12670000   -3.154  1.11403  5.50581
    37      1     37 0.15770000   -2.957  3.31064  3.34521
    38      1     38 0.41940000   -4.639  1.03252  3.51776
    39      1     39 0.10090000   -4.229  4.11379  5.37559
    40      1     40 0.10090000   -5.283  2.68429  5.25698
    41      1     41 0.42220000   -4.945  4.39036  3.04222
    42      1     42 0.12820000   -3.577  3.00758 -2.48409
    43      1     43 0.12820000   -2.235  4.03822 -1.98638
    44      1     44 0.14920000   -4.406  2.89047 -0.11387
    45      1     45 0.42510000   -2.165  4.53767  0.39489
    46      1     46 0.10230000   -5.230  4.77870 -1.61794
    47      1     47 0.10230000   -3.919  5.80230 -0.98137
    48      1     48 0.41690000   -5.720  4.52763  0.77427

Bonds 

     1      1      2      1
     2      2      3      2
     3      3      4      3
     4      4      5      4
     5      5      6      4
     6      6      7      4
     7      7      8      7
     8      8      9      7
     9      9     10      9
    10     10     11     10
    11     11     12     11
    12     12     13     11
    13     13     14     13
    14     14     15      2
    15     15     16     15
    16     16     17     15
    17     17     18     17
    18     18     19     18
    19     19     20     19
    20     20     21     19
    21     21     22     21
    22     22     23      1
    23     23     24      1
    24     24     25      1
    25     25     26      2
    26     26     27      3
    27     27     28      3
    28     28     29      5
    29     29     30      5
    30     30     31      5
    31     31     32      6
    32     32     33      6
    33     33     34      6
    34     34     35     10
    35     35     36     10
    36     36     37     11
    37     37     38     12
    38     38     39     13
    39     39     40     13
    40     40     41     14
    41     41     42     18
    42     42     43     18
    43     43     44     19
    44     44     45     20
    45     45     46     21
    46     46     47     21
    47     47     48     22

Angles 

     1      1      1      2      3
     2      2      2      3      4
     3      3      3      4      5
     4      4      3      4      6
     5      5      3      4      7
     6      6      4      7      8
     7      7      4      7      9
     8      8      7      9     10
     9      9      9     10     11
    10     10     10     11     12
    11     11     10     11     13
    12     12     11     13     14
    13     13      1      2     15
    14     14      2     15     16
    15     15      2     15     17
    16     16     15     17     18
    17     17     17     18     19
    18     18     18     19     20
    19     19     18     19     21
    20     20     19     21     22
    21     21      2      1     23
    22     22      2      1     24
    23     23      2      1     25
    24     24      1      2     26
    25     25      2      3     27
    26     26      2      3     28
    27     27      4      5     29
    28     28      4      5     30
    29     29      4      5     31
    30     30      4      6     32
    31     31      4      6     33
    32     32      4      6     34
    33     33      9     10     35
    34     34      9     10     36
    35     35     10     11     37
    36     36     11     12     38
    37     37     11     13     39
    38     38     11     13     40
    39     39     13     14     41
    40     40     17     18     42
    41     41     17     18     43
    42     42     18     19     44
    43     43     19     20     45
    44     44     19     21     46
    45     45     19     21     47
    46     46     21     22     48
    47     47      5      4      6
    48     48     22     21     46
    49     49     12     11     37
    50     50      3      2     26
    51     51     29      5     31
    52     52      3      2     15
    53     53     20     19     44
    54     54      6      4      7
    55     55     32      6     34
    56     56     14     13     39
    57     57     33      6     34
    58     58      8      7      9
    59     59     23      1     24
    60     60     11     10     36
    61     61     30      5     31
    62     62      4      3     27
    63     63     14     13     40
    64     64     11     10     35
    65     65     42     18     43
    66     66     29      5     30
    67     67     46     21     47
    68     68     20     19     21
    69     69     39     13     40
    70     70     13     11     37
    71     71     16     15     17
    72     72     19     18     42
    73     73     21     19     44
    74     74     27      3     28
    75     75     23      1     25
    76     76     35     10     36
    77     77     12     11     13
    78     78     22     21     47
    79     79     15      2     26
    80     80      4      3     28
    81     81     32      6     33
    82     82      5      4      7
    83     83     19     18     43
    84     84     24      1     25

Dihedrals

     1      1      4      3      2      1 
     2      2      5      4      3      2 
     3      3      8      7      4      3 
     4      4     10      9      7      4 
     5      5     11     10      9      7 
     6      6     12     11     10      9 
     7      7     14     13     11     10 
     8      8     16     15      2      1 
     9      9     18     17     15      2 
    10     10     19     18     17     15 
    11     11     20     19     18     17 
    12     12     22     21     19     18 
    13     13     23      1      2      3 
    14     14     29      5      4      3 
    15     15     32      6      4      3 
    16     16     38     12     11     10 
    17     17     41     14     13     11 
    18     18     45     20     19     18 
    19     19     48     22     21     19 
    20     20     47     21     19     18 
    21     21     27      3      4      5 
    22     22     35     10     11     12 
    23     23     21     19     18     17 
    24     24     36     10      9      7 
    25     25     37     11     10     35 
    26     26     39     13     11     12 
    27     27     37     11     13     14 
    28     28     45     20     19     21 
    29     29     28      3      4      7 
    30     30     33      6      4      7 
    31     31     32      6      4      5 
    32     32     43     18     19     21 
    33     33     23      1      2     15 
    34     34     26      2      1     23 
    35     35     44     19     18     42 
    36     36     37     11     10     36 
    37     37     42     18     19     20 
    38     38     43     18     17     15 
    39     39     37     11     10      9 
    40     40     42     18     17     15 
    41     41     27      3      4      7 
    42     42     28      3      4      6 
    43     43     22     21     19     20 
    44     44     31      5      4      7 
    45     45     33      6      4      5 
    46     46     26      2      1     24 
    47     47     10      9      7      8 
    48     48     26      2      3      4 
    49     49     39     13     11     10 
    50     50     27      3      2     26 
    51     51     30      5      4      3 
    52     52      6      4      3      2 
    53     53     39     13     11     37 
    54     54     28      3      2      1 
    55     55     13     11     10      9 
    56     56     17     15      2      3 
    57     57     46     21     19     44 
    58     58     40     13     11     12 
    59     59     40     13     11     10 
    60     60     24      1      2     15 
    61     61     29      5      4      6 
    62     62     34      6      4      5 
    63     63     47     21     19     44 
    64     64     44     19     18     43 
    65     65     38     12     11     13 
    66     66     24      1      2      3 
    67     67     27      3      2     15 
    68     68     36     10     11     12 
    69     69     35     10     11     13 
    70     70     44     19     21     22 
    71     71     46     21     19     20 
    72     72     32      6      4      7 
    73     73     15      2      3      4 
    74     74     34      6      4      3 
    75     75     42     18     19     21 
    76     76     27      3      2      1 
    77     77     31      5      4      3 
    78     78     14     13     11     12 
    79     79     34      6      4      7 
    80     80     26      2     15     16 
    81     81     35     10      9      7 
    82     82     38     12     11     37 
    83     83     25      1      2      3 
    84     84      8      7      4      6 
    85     85     16     15      2      3 
    86     86      9      7      4      5 
    87     87     26      2      1     25 
    88     88     48     22     21     46 
    89     89     41     14     13     40 
    90     90     31      5      4      6 
    91     91     17     15      2      1 
    92     92     30      5      4      7 
    93     93      7      4      3      2 
    94     94      8      7      4      5 
    95     95     43     18     19     20 
    96     96      9      7      4      6 
    97     97     48     22     21     47 
    98     98     45     20     19     44 
    99     99     28      3      2     26 
   100    100      9      7      4      3 
   101    101     18     17     15     16 
   102    102     28      3      4      5 
   103    103     27      3      4      6 
   104    104     47     21     19     20 
   105    105     30      5      4      6 
   106    106     29      5      4      7 
   107    107     25      1      2     15 
   108    108     36     10     11     13 
   109    109     33      6      4      3 
   110    110     46     21     19     18 
   111    111     44     19     18     17 
   112    112     26      2     15     17 
   113    113     28      3      2     15 
   114    114     41     14     13     39 
   115    115     40     13     11     37 

Impropers

     1      1      4      3      5      6 
     2      2      4      3      5      7 
     3      3      7      9      4      8 
     4      4     11     10     12     13 
     5      5      2      1      3     15 
     6      6     15     17      2     16 
     7      7     19     18     20     21 
     8      8      1      2     23     24 
     9      9      1     25     23      2 
    10     10      2      1     26      3 
    11     11      3      2     27      4 
    12     12      3      4      2     28 
    13     13      5     29      4     30 
    14     14      5     29      4     31 
    15     15      6     33      4     32 
    16     16      6     34      4     32 
    17     17     10      9     35     11 
    18     18     10      9     11     36 
    19     19     11     10     12     37 
    20     20     13     11     14     39 
    21     21     13     11     14     40 
    22     22     18     17     42     19 
    23     23     18     17     43     19 
    24     24     19     20     18     44 
    25     25     21     19     46     22 
    26     26     21     19     22     47 
