LAMMPS data file Created by LigParGen - (Written by Leela S. Dodda)

      32 atoms
      31 bonds
      56 angles
      67 dihedrals
      18 impropers
 
      32 atom types
      31 bond types
      56 angle types
      67 dihedral types
      18 improper types
 
   -7.985710    42.014290 xlo xhi
    0.095670    50.095670 ylo yhi
   -2.480940    47.519060 zlo zhi

Masses

       1     12.011  
       2     12.011  
       3     12.011  
       4     12.011  
       5     15.999  
       6     15.999  
       7     12.011  
       8     12.011  
       9     15.999  
      10     12.011  
      11     15.999  
      12     12.011  
      13     12.011  
      14     12.011  
      15      1.008  
      16      1.008  
      17      1.008  
      18      1.008  
      19      1.008  
      20      1.008  
      21      1.008  
      22      1.008  
      23      1.008  
      24      1.008  
      25      1.008  
      26      1.008  
      27      1.008  
      28      1.008  
      29      1.008  
      30      1.008  
      31      1.008  
      32      1.008  

Pair Coeffs 

       1      0.066  3.5000000 
       2      0.066  3.5000000 
       3      0.066  3.5000000 
       4      0.070  3.5500000 
       5      0.210  2.9600000 
       6      0.140  2.9000000 
       7      0.066  3.5000000 
       8      0.066  3.5000000 
       9      0.140  2.9000000 
      10      0.070  3.5500000 
      11      0.210  2.9600000 
      12      0.066  3.5000000 
      13      0.066  3.5000000 
      14      0.066  3.5000000 
      15      0.030  2.5000000 
      16      0.030  2.5000000 
      17      0.030  2.5000000 
      18      0.030  2.5000000 
      19      0.030  2.5000000 
      20      0.030  2.5000000 
      21      0.030  2.5000000 
      22      0.030  2.5000000 
      23      0.030  2.5000000 
      24      0.030  2.5000000 
      25      0.030  2.5000000 
      26      0.030  2.5000000 
      27      0.030  2.5000000 
      28      0.030  2.5000000 
      29      0.030  2.5000000 
      30      0.030  2.5000000 
      31      0.030  2.5000000 
      32      0.030  2.5000000 

Bond Coeffs 

       1   268.0000     1.5290 
       2   268.0000     1.5290 
       3   317.0000     1.5220 
       4   570.0000     1.2290 
       5   214.0000     1.3270 
       6   320.0000     1.4100 
       7   268.0000     1.5290 
       8   320.0000     1.4100 
       9   214.0000     1.3270 
      10   570.0000     1.2290 
      11   317.0000     1.5220 
      12   268.0000     1.5290 
      13   268.0000     1.5290 
      14   340.0000     1.0900 
      15   340.0000     1.0900 
      16   340.0000     1.0900 
      17   340.0000     1.0900 
      18   340.0000     1.0900 
      19   340.0000     1.0900 
      20   340.0000     1.0900 
      21   340.0000     1.0900 
      22   340.0000     1.0900 
      23   340.0000     1.0900 
      24   340.0000     1.0900 
      25   340.0000     1.0900 
      26   340.0000     1.0900 
      27   340.0000     1.0900 
      28   340.0000     1.0900 
      29   340.0000     1.0900 
      30   340.0000     1.0900 
      31   340.0000     1.0900 

Angle Coeffs 

       1     58.350    112.700
       2     63.000    111.100
       3     80.000    120.400
       4     81.000    111.400
       5     83.000    116.900
       6     50.000    109.500
       7     50.000    109.500
       8     83.000    116.900
       9     83.000    123.400
      10     81.000    111.400
      11     63.000    111.100
      12     63.000    111.100
      13     37.500    110.700
      14     37.500    110.700
      15     37.500    110.700
      16     37.500    110.700
      17     37.500    110.700
      18     37.500    110.700
      19     37.500    110.700
      20     35.000    109.500
      21     35.000    109.500
      22     37.500    110.700
      23     37.500    110.700
      24     35.000    109.500
      25     37.500    110.700
      26     37.500    110.700
      27     37.500    110.700
      28     37.500    110.700
      29     37.500    110.700
      30     37.500    110.700
      31     33.000    107.800
      32     83.000    123.400
      33     35.000    109.500
      34     33.000    107.800
      35     58.350    112.700
      36     33.000    107.800
      37     37.500    110.700
      38     80.000    120.400
      39     33.000    107.800
      40     33.000    107.800
      41     33.000    107.800
      42     35.000    109.500
      43     33.000    107.800
      44     33.000    107.800
      45     37.500    110.700
      46     33.000    107.800
      47     33.000    107.800
      48     63.000    111.100
      49     33.000    107.800
      50     37.500    110.700
      51     33.000    107.800
      52     33.000    107.800
      53     35.000    109.500
      54     33.000    107.800
      55     37.500    110.700
      56     37.500    110.700

Dihedral Coeffs  

       1      0.000      0.000      0.000      0.000 
       2      4.669      5.124      0.000      0.000 
       3     -1.220     -0.126      0.422      0.000 
       4     -0.550      0.000      0.000      0.000 
       5     -1.220     -0.126      0.422      0.000 
       6      0.000      5.124      0.000      0.000 
       7      0.000      0.000     -0.553      0.000 
       8      0.000      0.000      0.300      0.000 
       9      0.000      0.000      0.300      0.000 
      10      0.000      0.000     -0.100      0.000 
      11      0.000      0.000     -0.100      0.000 
      12      0.000      0.000     -0.100      0.000 
      13      0.000      0.000     -0.100      0.000 
      14      0.000      0.000      0.300      0.000 
      15      0.000      0.000     -0.100      0.000 
      16      0.000      0.000      0.300      0.000 
      17      0.000      0.000      0.300      0.000 
      18      0.000      0.000      0.300      0.000 
      19      0.000      0.000      0.468      0.000 
      20      0.000      0.000      0.300      0.000 
      21      0.000      0.000      0.300      0.000 
      22      0.000      0.000      0.000      0.000 
      23      0.000      0.000      0.300      0.000 
      24      0.000      0.000      0.468      0.000 
      25      0.000      0.000      0.300      0.000 
      26      0.000      0.000     -0.100      0.000 
      27      0.000      0.000      0.300      0.000 
      28      0.000      0.000      0.300      0.000 
      29      0.000      0.000      0.468      0.000 
      30      0.000      0.000      0.300      0.000 
      31      0.000      0.000      0.000      0.000 
      32      0.000      0.000      0.300      0.000 
      33      4.669      5.124      0.000      0.000 
      34      0.000      0.000      0.300      0.000 
      35      0.000      0.000      0.198      0.000 
      36      0.000      0.000      0.300      0.000 
      37      0.000      0.000      0.300      0.000 
      38      0.000      0.000      0.300      0.000 
      39      0.000      0.000     -0.100      0.000 
      40      0.000      0.000      0.198      0.000 
      41      0.000      0.000      0.000      0.000 
      42      0.000      0.000     -0.553      0.000 
      43      0.000      0.000      0.300      0.000 
      44      0.000      0.000      0.000      0.000 
      45      0.000      0.000      0.198      0.000 
      46      0.000      0.000      0.300      0.000 
      47      0.000      0.000      0.198      0.000 
      48      0.000      0.000      0.468      0.000 
      49      0.000      0.000      0.300      0.000 
      50      0.000      0.000      0.132      0.000 
      51      0.000      0.000     -0.553      0.000 
      52      0.000      0.000     -0.100      0.000 
      53      0.000      0.000      0.300      0.000 
      54      0.000      0.000     -0.100      0.000 
      55      0.000      0.000      0.300      0.000 
      56      0.000      0.000     -0.553      0.000 
      57      0.000      5.124      0.000      0.000 
      58      0.000      0.000      0.132      0.000 
      59      0.000      0.000      0.300      0.000 
      60      0.000      0.000     -0.100      0.000 
      61      0.000      0.000     -0.100      0.000 
      62      0.000      0.000      0.300      0.000 
      63      0.000      0.000      0.300      0.000 
      64      0.000      0.000      0.000      0.000 
      65      0.000      0.000     -0.100      0.000 
      66      0.000      0.000      0.300      0.000 
      67      0.000      0.000      0.300      0.000 

Improper Coeffs 

       1      0.000      -1       2 
       2     10.500      -1       2 
       3     10.500      -1       2 
       4      0.000      -1       2 
       5      0.000      -1       2 
       6      0.000      -1       2 
       7      0.000      -1       2 
       8      0.000      -1       2 
       9      0.000      -1       2 
      10      0.000      -1       2 
      11      0.000      -1       2 
      12      0.000      -1       2 
      13      0.000      -1       2 
      14      0.000      -1       2 
      15      0.000      -1       2 
      16      0.000      -1       2 
      17      0.000      -1       2 
      18      0.000      -1       2 

Atoms 

     1      1      1 -0.23480000    1.000  1.00000  0.00000
     2      1      2 -0.11810000   -0.528  1.00000  0.00000
     3      1      3 -0.23110000   -1.056  1.00000  1.43137
     4      1      4 0.43940000   -1.052  2.19889 -0.77176
     5      1      5 -0.45510000   -0.354  3.06773 -1.27775
     6      1      6 -0.35180000   -2.413  2.17365 -0.82525
     7      1      7 -0.02630000   -3.019  3.26959 -1.53909
     8      1      8 -0.02640000   -3.057  4.53415 -0.67865
     9      1      9 -0.35300000   -3.858  4.32684  0.50103
    10      1     10 0.43950000   -5.205  4.39130  0.30732
    11      1     11 -0.45400000   -5.739  4.65081 -0.76112
    12      1     12 -0.11800000   -5.938  4.09711  1.60542
    13      1     13 -0.23470000   -7.446  4.23293  1.40553
    14      1     14 -0.23170000   -5.594  2.69754  2.10782
    15      1     15 0.09600000    1.392  0.12842  0.53390
    16      1     16 0.09600000    1.397  1.90174  0.48002
    17      1     17 0.09600000    1.388  0.97131 -1.02413
    18      1     18 0.13280000   -0.867  0.09567 -0.51971
    19      1     19 0.09540000   -0.788  1.92546  1.95245
    20      1     20 0.09540000   -0.647  0.15592  1.99705
    21      1     21 0.09540000   -2.148  0.91743  1.45009
    22      1     22 0.13470000   -4.031  2.94046 -1.79374
    23      1     23 0.13470000   -2.488  3.44776 -2.48094
    24      1     24 0.13600000   -3.435  5.38960 -1.25025
    25      1     25 0.13600000   -2.056  4.79557 -0.32385
    26      1     26 0.13340000   -5.621  4.84661  2.34112
    27      1     27 0.09590000   -7.808  3.54370  0.63412
    28      1     28 0.09590000   -7.706  5.24880  1.08773
    29      1     29 0.09590000   -7.986  4.01956  2.33404
    30      1     30 0.09550000   -5.851  1.93658  1.36247
    31      1     31 0.09550000   -6.137  2.47059  3.03148
    32      1     32 0.09550000   -4.523  2.60285  2.31755

Bonds 

     1      1      2      1
     2      2      3      2
     3      3      4      2
     4      4      5      4
     5      5      6      4
     6      6      7      6
     7      7      8      7
     8      8      9      8
     9      9     10      9
    10     10     11     10
    11     11     12     10
    12     12     13     12
    13     13     14     12
    14     14     15      1
    15     15     16      1
    16     16     17      1
    17     17     18      2
    18     18     19      3
    19     19     20      3
    20     20     21      3
    21     21     22      7
    22     22     23      7
    23     23     24      8
    24     24     25      8
    25     25     26     12
    26     26     27     13
    27     27     28     13
    28     28     29     13
    29     29     30     14
    30     30     31     14
    31     31     32     14

Angles 

     1      1      1      2      3
     2      2      1      2      4
     3      3      2      4      5
     4      4      2      4      6
     5      5      4      6      7
     6      6      6      7      8
     7      7      7      8      9
     8      8      8      9     10
     9      9      9     10     11
    10     10      9     10     12
    11     11     10     12     13
    12     12     10     12     14
    13     13      2      1     15
    14     14      2      1     16
    15     15      2      1     17
    16     16      1      2     18
    17     17      2      3     19
    18     18      2      3     20
    19     19      2      3     21
    20     20      6      7     22
    21     21      6      7     23
    22     22      7      8     24
    23     23      7      8     25
    24     24     10     12     26
    25     25     12     13     27
    26     26     12     13     28
    27     27     12     13     29
    28     28     12     14     30
    29     29     12     14     31
    30     30     12     14     32
    31     31     16      1     17
    32     32      5      4      6
    33     33      9      8     25
    34     34     28     13     29
    35     35     13     12     14
    36     36     30     14     31
    37     37      3      2     18
    38     38     11     10     12
    39     39     20      3     21
    40     40     31     14     32
    41     41     15      1     17
    42     42      9      8     24
    43     43     22      7     23
    44     44     19      3     21
    45     45      8      7     23
    46     46     30     14     32
    47     47     15      1     16
    48     48      3      2      4
    49     49     27     13     28
    50     50      8      7     22
    51     51     19      3     20
    52     52     24      8     25
    53     53      4      2     18
    54     54     27     13     29
    55     55     13     12     26
    56     56     14     12     26

Dihedrals

     1      1      5      4      2      1 
     2      2      7      6      4      2 
     3      3      8      7      6      4 
     4      4      9      8      7      6 
     5      5     10      9      8      7 
     6      6     11     10      9      8 
     7      7     13     12     10      9 
     8      8     15      1      2      3 
     9      9     19      3      2      1 
    10     10     27     13     12     10 
    11     11     30     14     12     10 
    12     12     32     14     12     10 
    13     13     21      3      2      4 
    14     14     25      8      7     22 
    15     15     28     13     12     10 
    16     16     28     13     12     14 
    17     17     30     14     12     13 
    18     18     29     13     12     14 
    19     19     23      7      8      9 
    20     20     25      8      7     23 
    21     21     19      3      2     18 
    22     22      5      4      2      3 
    23     23     27     13     12     14 
    24     24     25      8      7      6 
    25     25     18      2      1     17 
    26     26     19      3      2      4 
    27     27     24      8      7     22 
    28     28     31     14     12     26 
    29     29     22      7      8      9 
    30     30     32     14     12     13 
    31     31     26     12     10     11 
    32     32     20      3      2      1 
    33     33     12     10      9      8 
    34     34     20      3      2     18 
    35     35     22      7      6      4 
    36     36     30     14     12     26 
    37     37     28     13     12     26 
    38     38     32     14     12     26 
    39     39     29     13     12     10 
    40     40     25      8      9     10 
    41     41     14     12     10     11 
    42     42      6      4      2      1 
    43     43     21      3      2      1 
    44     44     13     12     10     11 
    45     45     23      7      6      4 
    46     46     27     13     12     26 
    47     47     24      8      9     10 
    48     48     24      8      7      6 
    49     49     24      8      7     23 
    50     50     18      2      4      6 
    51     51      6      4      2      3 
    52     52     31     14     12     10 
    53     53     21      3      2     18 
    54     54     15      1      2      4 
    55     55     16      1      2      3 
    56     56     14     12     10      9 
    57     57      7      6      4      5 
    58     58     26     12     10      9 
    59     59     31     14     12     13 
    60     60     20      3      2      4 
    61     61     17      1      2      4 
    62     62     18      2      1     15 
    63     63     18      2      1     16 
    64     64     18      2      4      5 
    65     65     16      1      2      4 
    66     66     17      1      2      3 
    67     67     29     13     12     26 

Impropers

     1      1      2      1      3      4 
     2      2      4      2      5      6 
     3      3     10      9     11     12 
     4      4     12     10     13     14 
     5      5      1      2     15     16 
     6      6      1     17     15      2 
     7      7      2      1     18      3 
     8      8      3      2     20     19 
     9      9      3      2     21     19 
    10     10      7      8     22      6 
    11     11      7      8     23      6 
    12     12      8      9      7     24 
    13     13      8     25      9      7 
    14     14     12     26     13     10 
    15     15     13     12     27     28 
    16     16     13     27     12     29 
    17     17     14     12     31     30 
    18     18     14     12     30     32 

