LAMMPS data file Created by LigParGen - (Written by Leela S. Dodda)

      40 atoms
      39 bonds
      70 angles
      91 dihedrals
      22 impropers
 
      40 atom types
      39 bond types
      70 angle types
      91 dihedral types
      22 improper types
 
   -3.563370    46.436630 xlo xhi
   -2.365060    47.634940 ylo yhi
   -3.853040    46.146960 zlo zhi

Masses

       1     12.011  
       2     12.011  
       3     12.011  
       4     12.011  
       5     12.011  
       6     12.011  
       7     12.011  
       8     15.999  
       9     15.999  
      10     12.011  
      11     12.011  
      12     15.999  
      13     12.011  
      14     15.999  
      15     15.999  
      16     12.011  
      17     12.011  
      18     15.999  
      19      1.008  
      20      1.008  
      21      1.008  
      22      1.008  
      23      1.008  
      24      1.008  
      25      1.008  
      26      1.008  
      27      1.008  
      28      1.008  
      29      1.008  
      30      1.008  
      31      1.008  
      32      1.008  
      33      1.008  
      34      1.008  
      35      1.008  
      36      1.008  
      37      1.008  
      38      1.008  
      39      1.008  
      40      1.008  

Pair Coeffs 

       1      0.066  3.5000000 
       2      0.066  3.5000000 
       3      0.066  3.5000000 
       4      0.066  3.5000000 
       5      0.066  3.5000000 
       6      0.066  3.5000000 
       7      0.070  3.5500000 
       8      0.210  2.9600000 
       9      0.140  2.9000000 
      10      0.066  3.5000000 
      11      0.066  3.5000000 
      12      0.170  3.1200000 
      13      0.070  3.5500000 
      14      0.210  2.9600000 
      15      0.140  2.9000000 
      16      0.066  3.5000000 
      17      0.066  3.5000000 
      18      0.170  3.1200000 
      19      0.030  2.5000000 
      20      0.030  2.5000000 
      21      0.030  2.5000000 
      22      0.030  2.5000000 
      23      0.030  2.5000000 
      24      0.030  2.5000000 
      25      0.030  2.5000000 
      26      0.030  2.5000000 
      27      0.030  2.5000000 
      28      0.030  2.5000000 
      29      0.030  2.5000000 
      30      0.030  2.5000000 
      31      0.030  2.5000000 
      32      0.030  2.5000000 
      33      0.030  2.5000000 
      34      0.030  2.5000000 
      35      0.000  0.0000000 
      36      0.030  2.5000000 
      37      0.030  2.5000000 
      38      0.030  2.5000000 
      39      0.030  2.5000000 
      40      0.000  0.0000000 

Bond Coeffs 

       1   268.0000     1.5290 
       2   268.0000     1.5290 
       3   268.0000     1.5290 
       4   268.0000     1.5290 
       5   268.0000     1.5290 
       6   317.0000     1.5220 
       7   570.0000     1.2290 
       8   214.0000     1.3270 
       9   320.0000     1.4100 
      10   268.0000     1.5290 
      11   320.0000     1.4100 
      12   317.0000     1.5220 
      13   570.0000     1.2290 
      14   214.0000     1.3270 
      15   320.0000     1.4100 
      16   268.0000     1.5290 
      17   320.0000     1.4100 
      18   340.0000     1.0900 
      19   340.0000     1.0900 
      20   340.0000     1.0900 
      21   340.0000     1.0900 
      22   340.0000     1.0900 
      23   340.0000     1.0900 
      24   340.0000     1.0900 
      25   340.0000     1.0900 
      26   340.0000     1.0900 
      27   340.0000     1.0900 
      28   340.0000     1.0900 
      29   340.0000     1.0900 
      30   340.0000     1.0900 
      31   340.0000     1.0900 
      32   340.0000     1.0900 
      33   340.0000     1.0900 
      34   553.0000     0.9450 
      35   340.0000     1.0900 
      36   340.0000     1.0900 
      37   340.0000     1.0900 
      38   340.0000     1.0900 
      39   553.0000     0.9450 

Angle Coeffs 

       1     58.350    112.700
       2     58.350    112.700
       3     58.350    112.700
       4     58.350    112.700
       5     63.000    111.100
       6     80.000    120.400
       7     81.000    111.400
       8     83.000    116.900
       9     50.000    109.500
      10     50.000    109.500
      11     63.000    111.100
      12     80.000    120.400
      13     81.000    111.400
      14     83.000    116.900
      15     50.000    109.500
      16     50.000    109.500
      17     37.500    110.700
      18     37.500    110.700
      19     37.500    110.700
      20     37.500    110.700
      21     37.500    110.700
      22     37.500    110.700
      23     37.500    110.700
      24     37.500    110.700
      25     37.500    110.700
      26     37.500    110.700
      27     37.500    110.700
      28     37.500    110.700
      29     35.000    109.500
      30     35.000    109.500
      31     37.500    110.700
      32     37.500    110.700
      33     55.000    108.500
      34     35.000    109.500
      35     35.000    109.500
      36     37.500    110.700
      37     37.500    110.700
      38     55.000    108.500
      39     33.000    107.800
      40     58.350    112.700
      41     37.500    110.700
      42     37.500    110.700
      43     33.000    107.800
      44     33.000    107.800
      45     33.000    107.800
      46     63.000    111.100
      47     33.000    107.800
      48     63.000    111.100
      49     83.000    123.400
      50     35.000    109.500
      51     83.000    123.400
      52     33.000    107.800
      53     37.500    110.700
      54     37.500    110.700
      55     35.000    109.500
      56     33.000    107.800
      57     33.000    107.800
      58     37.500    110.700
      59     33.000    107.800
      60     33.000    107.800
      61     33.000    107.800
      62     33.000    107.800
      63     37.500    110.700
      64     35.000    109.500
      65     37.500    110.700
      66     63.000    111.100
      67     35.000    109.500
      68     33.000    107.800
      69     33.000    107.800
      70     35.000    109.500

Dihedral Coeffs  

       1      1.300     -0.200      0.200      0.000 
       2      1.300     -0.200      0.200      0.000 
       3      0.000      0.000      0.000      0.000 
       4      4.669      5.124      0.000      0.000 
       5     -1.220     -0.126      0.422      0.000 
       6      4.319      0.000      0.000      0.000 
       7      0.000      0.000      0.000      0.000 
       8      4.669      5.124      0.000      0.000 
       9     -1.220     -0.126      0.422      0.000 
      10      4.319      0.000      0.000      0.000 
      11      0.000      0.000      0.300      0.000 
      12      0.000      0.000      0.300      0.000 
      13      0.000      0.000      0.300      0.000 
      14     -0.356     -0.174      0.492      0.000 
      15     -0.356     -0.174      0.492      0.000 
      16      0.000      0.000      0.198      0.000 
      17      0.000      0.000      0.468      0.000 
      18      0.000      0.000      0.300      0.000 
      19      0.000      0.000      0.300      0.000 
      20      0.000      0.000      0.132      0.000 
      21      0.000      0.000      0.300      0.000 
      22      0.000      0.000      0.300      0.000 
      23      0.000      0.000      0.300      0.000 
      24      0.000      0.000      0.300      0.000 
      25      0.000      0.000      0.300      0.000 
      26     -2.060     -0.313      0.315      0.000 
      27      0.000      5.124      0.000      0.000 
      28      0.000      0.000      0.352      0.000 
      29      0.000      0.000      0.300      0.000 
      30      0.000      0.000      0.468      0.000 
      31      0.000      0.000      0.000      0.000 
      32      0.000      0.000      0.300      0.000 
      33      0.000      0.000      0.468      0.000 
      34      0.000      0.000      0.468      0.000 
      35      0.000      0.000     -0.100      0.000 
      36      1.300     -0.200      0.200      0.000 
      37      0.000      0.000      0.198      0.000 
      38      0.000      0.000     -0.100      0.000 
      39      0.000      5.124      0.000      0.000 
      40      0.000      0.000      0.300      0.000 
      41      0.000      0.000      0.300      0.000 
      42      0.000      0.000     -0.100      0.000 
      43     -2.060     -0.313      0.315      0.000 
      44      0.000      0.000      0.300      0.000 
      45      0.000      0.000      0.300      0.000 
      46      0.000      0.000      0.300      0.000 
      47      0.000      0.000      0.352      0.000 
      48      0.000      0.000     -0.100      0.000 
      49      0.000      0.000      0.300      0.000 
      50      0.000      0.000      0.300      0.000 
      51      0.000      0.000      0.300      0.000 
      52      0.000      0.000     -0.100      0.000 
      53      0.000      0.000     -0.553      0.000 
      54      0.000      0.000      0.468      0.000 
      55      0.000      0.000      0.300      0.000 
      56      0.000      0.000      0.000      0.000 
      57      0.000      0.000      0.300      0.000 
      58      0.000      0.000     -0.553      0.000 
      59      0.000      0.000     -0.100      0.000 
      60      0.000      0.000      0.000      0.000 
      61      0.000      0.000      0.468      0.000 
      62      0.000      0.000      0.300      0.000 
      63      0.000      0.000      0.300      0.000 
      64      0.000      0.000      0.300      0.000 
      65      0.000      0.000     -0.100      0.000 
      66      0.000      0.000      0.000      0.000 
      67      0.000      0.000      0.468      0.000 
      68      0.000      0.000     -0.553      0.000 
      69      0.000      0.000      0.300      0.000 
      70      0.000      0.000      0.468      0.000 
      71      0.000      0.000      0.352      0.000 
      72      0.000      0.000     -0.553      0.000 
      73      0.000      0.000      0.300      0.000 
      74      0.000      0.000      0.352      0.000 
      75      0.000      0.000      0.300      0.000 
      76      0.000      0.000     -0.100      0.000 
      77      0.000      0.000      0.300      0.000 
      78      0.000      0.000     -0.553      0.000 
      79      0.000      0.000     -0.100      0.000 
      80      0.000      0.000     -0.100      0.000 
      81      0.000      0.000     -0.100      0.000 
      82      0.000      0.000      0.198      0.000 
      83      0.000      0.000      0.300      0.000 
      84      0.000      0.000      0.300      0.000 
      85      0.000      0.000     -0.100      0.000 
      86      0.000      0.000      0.300      0.000 
      87      0.000      0.000      0.198      0.000 
      88      0.000      0.000      0.300      0.000 
      89      0.000      0.000      0.300      0.000 
      90      0.000      0.000      0.300      0.000 
      91      0.000      0.000     -0.100      0.000 

Improper Coeffs 

       1      0.000      -1       2 
       2      0.000      -1       2 
       3     10.500      -1       2 
       4      0.000      -1       2 
       5     10.500      -1       2 
       6      0.000      -1       2 
       7      0.000      -1       2 
       8      0.000      -1       2 
       9      0.000      -1       2 
      10      0.000      -1       2 
      11      0.000      -1       2 
      12      0.000      -1       2 
      13      0.000      -1       2 
      14      0.000      -1       2 
      15      0.000      -1       2 
      16      0.000      -1       2 
      17      0.000      -1       2 
      18      0.000      -1       2 
      19      0.000      -1       2 
      20      0.000      -1       2 
      21      0.000      -1       2 
      22      0.000      -1       2 

Atoms 

     1      1      1 -0.23340000    1.000  1.00000  0.00000
     2      1      2 -0.10580000   -0.522  1.00000  0.00000
     3      1      3 -0.17040000   -1.165  1.00000  1.40203
     4      1      4 -0.03240000   -0.989 -0.21113  2.35576
     5      1      5 -0.23530000   -1.435 -1.51865  1.68110
     6      1      6 -0.23070000    0.444 -0.37458  2.87736
     7      1      7 0.43510000   -1.927  0.06411  3.54497
     8      1      8 -0.44020000   -2.938 -0.57590  3.80450
     9      1      9 -0.36730000   -1.554  1.19903  4.20541
    10      1     10 -0.03880000   -2.592  1.82998  4.97941
    11      1     11 -0.02300000   -2.761  1.17985  6.34703
    12      1     12 -0.58290000   -1.561  1.30726  7.10583
    13      1     13 0.43160000   -1.021  2.24641 -0.72398
    14      1     14 -0.44470000   -1.351  3.28626 -0.17067
    15      1     15 -0.36330000   -1.104  2.02621 -2.06482
    16      1     16 -0.03950000   -1.905  2.98179 -2.78702
    17      1     17 -0.02390000   -1.181  4.30405 -3.03066
    18      1     18 -0.58230000   -0.036  4.09672 -3.85304
    19      1     19 0.09760000    1.389  0.00030  0.20889
    20      1     20 0.09760000    1.400  1.69294  0.74784
    21      1     21 0.09760000    1.400  1.29986 -0.97490
    22      1     22 0.13580000   -0.891  0.13211 -0.55868
    23      1     23 0.11600000   -2.248  1.14123  1.25557
    24      1     24 0.11600000   -0.836  1.90975  1.92534
    25      1     25 0.09830000   -0.828 -1.74953  0.79989
    26      1     26 0.09830000   -2.483 -1.46614  1.36386
    27      1     27 0.09830000   -1.346 -2.36506  2.37280
    28      1     28 0.09600000    1.089 -0.87180  2.14819
    29      1     29 0.09600000    0.464 -0.98603  3.78711
    30      1     30 0.09600000    0.894  0.59305  3.12349
    31      1     31 0.12710000   -3.533  1.82659  4.41635
    32      1     32 0.12710000   -2.283  2.87395  5.10008
    33      1     33 0.11670000   -2.999  0.11605  6.27122
    34      1     34 0.11670000   -3.563  1.67897  6.89880
    35      1     35 0.41370000   -0.859  0.87910  6.58404
    36      1     36 0.12620000   -2.852  3.14370 -2.25634
    37      1     37 0.12620000   -2.141  2.51154 -3.74697
    38      1     38 0.11870000   -0.846  4.77623 -2.10389
    39      1     39 0.11870000   -1.847  4.99921 -3.55131
    40      1     40 0.41260000    0.548  3.48896 -3.36608

Bonds 

     1      1      2      1
     2      2      3      2
     3      3      4      3
     4      4      5      4
     5      5      6      4
     6      6      7      4
     7      7      8      7
     8      8      9      7
     9      9     10      9
    10     10     11     10
    11     11     12     11
    12     12     13      2
    13     13     14     13
    14     14     15     13
    15     15     16     15
    16     16     17     16
    17     17     18     17
    18     18     19      1
    19     19     20      1
    20     20     21      1
    21     21     22      2
    22     22     23      3
    23     23     24      3
    24     24     25      5
    25     25     26      5
    26     26     27      5
    27     27     28      6
    28     28     29      6
    29     29     30      6
    30     30     31     10
    31     31     32     10
    32     32     33     11
    33     33     34     11
    34     34     35     12
    35     35     36     16
    36     36     37     16
    37     37     38     17
    38     38     39     17
    39     39     40     18

Angles 

     1      1      1      2      3
     2      2      2      3      4
     3      3      3      4      5
     4      4      3      4      6
     5      5      3      4      7
     6      6      4      7      8
     7      7      4      7      9
     8      8      7      9     10
     9      9      9     10     11
    10     10     10     11     12
    11     11      1      2     13
    12     12      2     13     14
    13     13      2     13     15
    14     14     13     15     16
    15     15     15     16     17
    16     16     16     17     18
    17     17      2      1     19
    18     18      2      1     20
    19     19      2      1     21
    20     20      1      2     22
    21     21      2      3     23
    22     22      2      3     24
    23     23      4      5     25
    24     24      4      5     26
    25     25      4      5     27
    26     26      4      6     28
    27     27      4      6     29
    28     28      4      6     30
    29     29      9     10     31
    30     30      9     10     32
    31     31     10     11     33
    32     32     10     11     34
    33     33     11     12     35
    34     34     15     16     36
    35     35     15     16     37
    36     36     16     17     38
    37     37     16     17     39
    38     38     17     18     40
    39     39     19      1     20
    40     40      5      4      6
    41     41     11     10     32
    42     42     17     16     36
    43     43     33     11     34
    44     44     20      1     21
    45     45     25      5     27
    46     46      5      4      7
    47     47     28      6     29
    48     48      6      4      7
    49     49     14     13     15
    50     50     12     11     33
    51     51      8      7      9
    52     52     31     10     32
    53     53      4      3     23
    54     54      3      2     22
    55     55     18     17     39
    56     56     19      1     21
    57     57     36     16     37
    58     58     17     16     37
    59     59     26      5     27
    60     60     28      6     30
    61     61     23      3     24
    62     62     25      5     26
    63     63      4      3     24
    64     64     12     11     34
    65     65     11     10     31
    66     66      3      2     13
    67     67     18     17     38
    68     68     29      6     30
    69     69     38     17     39
    70     70     13      2     22

Dihedrals

     1      1      4      3      2      1 
     2      2      5      4      3      2 
     3      3      8      7      4      3 
     4      4     10      9      7      4 
     5      5     11     10      9      7 
     6      6     12     11     10      9 
     7      7     14     13      2      1 
     8      8     16     15     13      2 
     9      9     17     16     15     13 
    10     10     18     17     16     15 
    11     11     19      1      2      3 
    12     12     25      5      4      3 
    13     13     28      6      4      3 
    14     14     35     12     11     10 
    15     15     40     18     17     16 
    16     16     37     16     15     13 
    17     17     31     10     11     12 
    18     18     30      6      4      5 
    19     19     28      6      4      5 
    20     20     22      2     13     15 
    21     21     25      5      4      6 
    22     22     23      3      4      5 
    23     23     24      3      2     22 
    24     24     27      5      4      3 
    25     25     39     17     16     37 
    26     26     13      2      3      4 
    27     27     10      9      7      8 
    28     28     35     12     11     33 
    29     29     34     11     10     32 
    30     30     32     10     11     12 
    31     31     22      2     13     14 
    32     32     23      3      2     22 
    33     33     39     17     16     15 
    34     34     36     16     17     18 
    35     35     23      3      4      7 
    36     36      6      4      3      2 
    37     37     36     16     15     13 
    38     38     19      1      2     13 
    39     39     16     15     13     14 
    40     40     22      2      1     20 
    41     41     29      6      4      5 
    42     42     24      3      4      7 
    43     43      7      4      3      2 
    44     44     21      1      2      3 
    45     45     26      5      4      3 
    46     46     27      5      4      6 
    47     47     40     18     17     38 
    48     48     30      6      4      7 
    49     49     24      3      4      5 
    50     50     23      3      4      6 
    51     51     22      2      1     19 
    52     52     27      5      4      7 
    53     53     15     13      2      3 
    54     54     38     17     16     15 
    55     55     38     17     16     36 
    56     56      8      7      4      6 
    57     57     29      6      4      3 
    58     58      9      7      4      5 
    59     59     28      6      4      7 
    60     60     14     13      2      3 
    61     61     34     11     10      9 
    62     62     33     11     10     31 
    63     63     39     17     16     36 
    64     64     38     17     16     37 
    65     65     26      5      4      7 
    66     66      8      7      4      5 
    67     67     37     16     17     18 
    68     68      9      7      4      6 
    69     69     23      3      2      1 
    70     70     33     11     10      9 
    71     71     35     12     11     34 
    72     72     15     13      2      1 
    73     73     24      3      2      1 
    74     74     40     18     17     39 
    75     75     20      1      2      3 
    76     76     25      5      4      7 
    77     77     26      5      4      6 
    78     78      9      7      4      3 
    79     79     24      3      2     13 
    80     80     23      3      2     13 
    81     81     20      1      2     13 
    82     82     32     10      9      7 
    83     83     22      2      1     21 
    84     84     22      2      3      4 
    85     85     29      6      4      7 
    86     86     24      3      4      6 
    87     87     31     10      9      7 
    88     88     30      6      4      3 
    89     89     34     11     10     31 
    90     90     33     11     10     32 
    91     91     21      1      2     13 

Impropers

     1      1      4      3      5      6 
     2      2      4      3      5      7 
     3      3      7      9      4      8 
     4      4      2      1      3     13 
     5      5     13      2     14     15 
     6      6      1      2     19     20 
     7      7      1      2     19     21 
     8      8      2      1      3     22 
     9      9      3      2      4     23 
    10     10      3      2      4     24 
    11     11      5     25     26      4 
    12     12      5     25     27      4 
    13     13      6     28      4     29 
    14     14      6     28      4     30 
    15     15     10      9     11     31 
    16     16     10      9     11     32 
    17     17     11     33     10     12 
    18     18     11     34     12     10 
    19     19     16     17     36     15 
    20     20     16     17     37     15 
    21     21     17     18     38     16 
    22     22     17     18     39     16 

