LAMMPS data file Created by LigParGen - (Written by Leela S. Dodda)

      27 atoms
      28 bonds
      46 angles
      69 dihedrals
      15 impropers
 
      27 atom types
      28 bond types
      46 angle types
      69 dihedral types
      15 improper types
 
   -4.074870    45.925130 xlo xhi
   -5.089070    44.910930 ylo yhi
   -1.645330    48.354670 zlo zhi

Masses

       1     14.007  
       2     12.011  
       3     12.011  
       4     12.011  
       5     12.011  
       6     14.007  
       7      1.008  
       8     12.011  
       9     12.011  
      10     12.011  
      11     12.011  
      12     12.011  
      13     12.011  
      14     12.011  
      15     15.999  
      16     15.999  
      17      1.008  
      18      1.008  
      19      1.008  
      20      1.008  
      21      1.008  
      22      1.008  
      23      1.008  
      24      1.008  
      25      1.008  
      26      1.008  
      27      1.008  

Pair Coeffs 

       1      0.170  3.3000000 
       2      0.066  3.5000000 
       3      0.066  3.5000000 
       4      0.070  3.5500000 
       5      0.070  3.5500000 
       6      0.170  3.2500000 
       7      0.000  0.0000000 
       8      0.080  3.5000000 
       9      0.070  3.5500000 
      10      0.070  3.5500000 
      11      0.070  3.5500000 
      12      0.070  3.5500000 
      13      0.070  3.5500000 
      14      0.070  3.5500000 
      15      0.210  2.9600000 
      16      0.170  3.1200000 
      17      0.000  0.0000000 
      18      0.000  0.0000000 
      19      0.030  2.5000000 
      20      0.030  2.5000000 
      21      0.030  2.5000000 
      22      0.030  2.4200000 
      23      0.030  2.4200000 
      24      0.030  2.4200000 
      25      0.030  2.4200000 
      26      0.030  2.4200000 
      27      0.000  0.0000000 

Bond Coeffs 

       1   382.0000     1.4480 
       2   268.0000     1.5290 
       3   317.0000     1.4950 
       4   546.0000     1.3670 
       5   427.0000     1.3810 
       6   434.0000     1.0100 
       7   436.0000     1.3740 
       8   469.0000     1.4040 
       9   469.0000     1.4000 
      10   469.0000     1.4000 
      11   469.0000     1.4000 
      12   469.0000     1.4240 
      13   317.0000     1.5220 
      14   570.0000     1.2290 
      15   450.0000     1.3640 
      16   434.0000     1.0100 
      17   434.0000     1.0100 
      18   340.0000     1.0900 
      19   340.0000     1.0900 
      20   340.0000     1.0900 
      21   367.0000     1.0800 
      22   367.0000     1.0800 
      23   367.0000     1.0800 
      24   367.0000     1.0800 
      25   367.0000     1.0800 
      26   553.0000     0.9450 
      27   469.0000     1.4240 
      28   469.0000     1.4000 

Angle Coeffs 

       1     56.200    109.470
       2     63.000    115.600
       3     70.000    125.000
       4     70.000    107.700
       5     35.000    120.000
       6     70.000    109.800
       7     70.000    108.700
       8     63.000    120.000
       9     63.000    120.000
      10     63.000    120.000
      11     70.000    120.000
      12     80.000    111.200
      13     80.000    120.400
      14     70.000    108.000
      15     35.000    109.500
      16     35.000    109.500
      17     35.000    109.500
      18     37.500    110.700
      19     37.500    110.700
      20     35.000    132.100
      21     35.000    120.000
      22     35.000    120.000
      23     35.000    120.000
      24     35.000    120.000
      25     35.000    113.000
      26     63.000    120.000
      27     63.000    111.100
      28     80.000    121.000
      29     35.000    120.000
      30     70.000    107.300
      31     70.000    107.700
      32     35.000    121.600
      33     35.000    120.000
      34     85.000    134.900
      35     70.000    107.300
      36     35.000    109.500
      37     37.500    110.700
      38     30.000    125.800
      39     35.000    109.500
      40     43.600    106.400
      41     35.000    109.500
      42     63.000    120.000
      43     63.000    120.000
      44     33.000    107.800
      45     35.000    120.000
      46     35.000    120.000

Dihedral Coeffs  

       1      2.392     -0.674      0.550      0.000 
       2      0.000      0.000      0.000      0.000 
       3      0.000      7.250      0.000      0.000 
       4      0.000      5.000      0.000      0.000 
       5      0.000      7.250      0.000      0.000 
       6      0.000      7.000      0.000      0.000 
       7      0.000      7.250      0.000      0.000 
       8      0.000      7.250      0.000      0.000 
       9      0.000      0.000      0.000      0.000 
      10     -0.190     -0.417      0.418      0.000 
      11      1.500      5.500      0.000      0.000 
      12      0.000      0.000      0.000      0.000 
      13      0.000      7.250      0.000      0.000 
      14      0.000      7.250      0.000      0.000 
      15      0.000      0.000      0.000      0.000 
      16      0.000      0.000     -0.100      0.000 
      17      0.000      7.250      0.000      0.000 
      18      0.000      0.000      0.000      0.000 
      19      1.000      0.546      0.450      0.000 
      20      5.260      0.820      0.000      0.000 
      21      0.000      0.000      0.000      0.000 
      22      0.000      7.250      0.000      0.000 
      23      0.000      2.170      0.000      0.000 
      24      0.000      5.000      0.000      0.000 
      25      0.000      0.000      0.000      0.000 
      26      0.000      7.250      0.000      0.000 
      27      0.000      7.250      0.000      0.000 
      28      0.000      0.000      0.462      0.000 
      29      0.000      7.250      0.000      0.000 
      30      0.000      5.500      0.000      0.000 
      31      0.000      7.250      0.000      0.000 
      32      0.000      7.250      0.000      0.000 
      33      0.000      7.250      0.000      0.000 
      34     -1.013     -0.709      0.473      0.000 
      35      0.000      5.000      0.000      0.000 
      36      0.000      0.000     -0.100      0.000 
      37      0.000      0.000      0.000      0.000 
      38      0.000      0.000      0.300      0.000 
      39      0.000      0.000      0.400      0.000 
      40      0.000      7.000      0.000      0.000 
      41      0.000      5.000      0.000      0.000 
      42     -0.190     -0.417      0.418      0.000 
      43      0.000      7.250      0.000      0.000 
      44      0.000      2.170      0.000      0.000 
      45      0.000      7.250      0.000      0.000 
      46     -2.060     -0.313      0.315      0.000 
      47      0.000      0.000      0.400      0.000 
      48     -1.013     -0.709      0.473      0.000 
      49      0.000      7.250      0.000      0.000 
      50      0.000      7.250      0.000      0.000 
      51      0.000      7.250      0.000      0.000 
      52      0.000      5.000      0.000      0.000 
      53      0.000      7.250      0.000      0.000 
      54      0.000      2.170      0.000      0.000 
      55      0.000      0.000      0.300      0.000 
      56      0.000      2.170      0.000      0.000 
      57      0.000      5.000      0.000      0.000 
      58      0.000      7.250      0.000      0.000 
      59     -0.190     -0.417      0.418      0.000 
      60      0.000      7.250      0.000      0.000 
      61      0.000      0.000      0.000      0.000 
      62      0.000      7.250      0.000      0.000 
      63      0.000      2.170      0.000      0.000 
      64      0.000      7.250      0.000      0.000 
      65     -0.190     -0.417      0.418      0.000 
      66      0.000      0.000      0.000      0.000 
      67      0.000      2.170      0.000      0.000 
      68      0.000      2.170      0.000      0.000 
      69      0.000      7.250      0.000      0.000 

Improper Coeffs 

       1      2.500      -1       2 
       2      2.500      -1       2 
       3      0.000      -1       2 
       4     10.500      -1       2 
       5      0.000      -1       2 
       6      0.000      -1       2 
       7      0.000      -1       2 
       8      0.000      -1       2 
       9      2.500      -1       2 
      10      2.500      -1       2 
      11      2.500      -1       2 
      12      2.500      -1       2 
      13      2.500      -1       2 
      14      2.500      -1       2 
      15      2.500      -1       2 

Atoms 

     1      1      1 -0.96500000    1.000  1.00000  0.00000
     2      1      2 -0.00200000   -0.501  1.00000  0.00000
     3      1      3 -0.12100000   -1.118  1.00000  1.40630
     4      1      4 -0.18760000   -0.845 -0.25714  2.17911
     5      1      5 0.01070000    0.174 -0.45390  3.09140
     6      1      6 -0.61060000    0.079 -1.73066  3.57673
     7      1      7 0.44410000    0.697 -2.14448  4.26068
     8      1      8 0.10050000   -0.987 -2.38067  3.00047
     9      1      9 -0.16690000   -1.458 -3.68456  3.19480
    10      1     10 -0.12010000   -2.581 -4.08273  2.46331
    11      1     11 -0.17440000   -3.202 -3.20855  1.57502
    12      1     12 -0.09330000   -2.714 -1.90818  1.39533
    13      1     13 -0.08170000   -1.619 -1.46484  2.15439
    14      1     14 0.45080000   -0.962  2.23872 -0.78498
    15      1     15 -0.40470000   -2.042  2.79471 -0.67535
    16      1     16 -0.54260000    0.008  2.65358 -1.64533
    17      1     17 0.39160000    1.290  0.14058  0.48098
    18      1     18 0.39160000    1.310  1.74367  0.63530
    19      1     19 0.15980000   -0.832  0.12336 -0.56876
    20      1     20 0.12170000   -2.206  1.13033  1.33055
    21      1     21 0.12170000   -0.756  1.86692  1.97528
    22      1     22 0.18900000    0.959  0.20549  3.43728
    23      1     23 0.15160000   -0.975 -4.36574  3.88763
    24      1     24 0.15030000   -2.973 -5.08907  2.59210
    25      1     25 0.15270000   -4.075 -3.53842  1.01648
    26      1     26 0.15400000   -3.187 -1.25159  0.67087
    27      1     27 0.47980000    0.786  2.06282 -1.48281

Bonds 

     1      1      2      1
     2      2      3      2
     3      3      4      3
     4      4      5      4
     5      5      6      5
     6      6      7      6
     7      7      8      6
     8      8      9      8
     9      9     10      9
    10     10     11     10
    11     11     12     11
    12     12     13      4
    13     13     14      2
    14     14     15     14
    15     15     16     14
    16     16     17      1
    17     17     18      1
    18     18     19      2
    19     19     20      3
    20     20     21      3
    21     21     22      5
    22     22     23      9
    23     23     24     10
    24     24     25     11
    25     25     26     12
    26     26     27     16
    27     27     13      8
    28     28     13     12

Angles 

     1      1      1      2      3
     2      2      2      3      4
     3      3      3      4      5
     4      4      4      5      6
     5      5      5      6      7
     6      6      5      6      8
     7      7      6      8      9
     8      8      8      9     10
     9      9      9     10     11
    10     10     10     11     12
    11     11      3      4     13
    12     12      1      2     14
    13     13      2     14     15
    14     14      2     14     16
    15     15      2      1     17
    16     16      2      1     18
    17     17      1      2     19
    18     18      2      3     20
    19     19      2      3     21
    20     20      4      5     22
    21     21      8      9     23
    22     22      9     10     24
    23     23     10     11     25
    24     24     11     12     26
    25     25     14     16     27
    26     26      8     13     12
    27     27      3      2     14
    28     28     15     14     16
    29     29     12     11     25
    30     30      4     13      8
    31     31      6      8     13
    32     32      6      5     22
    33     33     10      9     23
    34     34      9      8     13
    35     35      5      4     13
    36     36     14      2     19
    37     37      3      2     19
    38     38      7      6      8
    39     39      4      3     21
    40     40     17      1     18
    41     41      4      3     20
    42     42     11     12     13
    43     43      4     13     12
    44     44     20      3     21
    45     45     13     12     26
    46     46     11     10     24

Dihedrals

     1      1      4      3      2      1 
     2      2      5      4      3      2 
     3      3      6      5      4      3 
     4      4      7      6      5      4 
     5      5      9      8      6      5 
     6      6     10      9      8      6 
     7      7     11     10      9      8 
     8      8     12     11     10      9 
     9      9     15     14      2      1 
    10     10     17      1      2      3 
    11     11     27     16     14      2 
    12     12     20      3      4      5 
    13     13     25     11     10      9 
    14     14     25     11     10     24 
    15     15     21      3      4     13 
    16     16     20      3      2     14 
    17     17      9      8     13      4 
    18     18     15     14      2      3 
    19     19     16     14      2      3 
    20     20     16     14      2      1 
    21     21     21      3      4      5 
    22     22     24     10      9      8 
    23     23     12     13      4      5 
    24     24      9      8      6      7 
    25     25     19      2     14     16 
    26     26     26     12     13      8 
    27     27     11     12     13      8 
    28     28     19      2      3      4 
    29     29     24     10      9     23 
    30     30     27     16     14     15 
    31     31     23      9      8     13 
    32     32     25     11     12     13 
    33     33     26     12     11     10 
    34     34     20      3      2      1 
    35     35      8      6      5      4 
    36     36     21      3      2     14 
    37     37     20      3      4     13 
    38     38     21      3      2     19 
    39     39     19      2      1     18 
    40     40     13      8      9     10 
    41     41     22      5      6      7 
    42     42     18      1      2     14 
    43     43     26     12     11     25 
    44     44      6      8     13      4 
    45     45     23      9     10     11 
    46     46     14      2      3      4 
    47     47     19      2      1     17 
    48     48     21      3      2      1 
    49     49     23      9      8      6 
    50     50     26     12     13      4 
    51     51     22      5      4     13 
    52     52     13      8      6      7 
    53     53     22      5      4      3 
    54     54     12     13      4      3 
    55     55     20      3      2     19 
    56     56      8     13      4      5 
    57     57     22      5      6      8 
    58     58     13      4      5      6 
    59     59     17      1      2     14 
    60     60     13     12     11     10 
    61     61     13      4      3      2 
    62     62     12     13      8      9 
    63     63     11     12     13      4 
    64     64     13      8      6      5 
    65     65     18      1      2      3 
    66     66     19      2     14     15 
    67     67     12     13      8      6 
    68     68      8     13      4      3 
    69     69     24     10     11     12 

Impropers

     1      1      6      5      7      8 
     2      2      4      5      3     13 
     3      3      2      1      3     14 
     4      4     14      2     15     16 
     5      5      1     18     17      2 
     6      6      2      1     19      3 
     7      7      3      4      2     20 
     8      8      3      2      4     21 
     9      9      5      4     22      6 
    10     10      9     10     23      8 
    11     11     10      9     11     24 
    12     12     11     25     10     12 
    13     13     12     26     11     13 
    14     14      8      9     13      6 
    15     15     13      4     12      8 

