LAMMPS data file via write_data, version 5 Jun 2019, timestep = 80000

113 atoms
22 atom types
124 bonds
14 bond types

0.0000000000000000e+00 5.0000000000000000e+00 xlo xhi
0.0000000000000000e+00 5.0000000000000000e+00 ylo yhi
0.0000000000000000e+00 5.0000000000000000e+00 zlo zhi

Masses

1 1.3
2 1.3
3 1.3
4 1.3
5 1.3
6 1
7 1
8 1
9 1
10 1
11 1.3
12 1
13 1
14 1
15 1
16 1.3
17 1.3
18 1.3
19 1.3
20 1.3
21 0.4
22 0.4

Pair Coeffs # lj/cut

1 1 1
2 1 1
3 1 1
4 1 1
5 1 1
6 1 1
7 1 1
8 1 1
9 1 1
10 1 1
11 1 1
12 1 1
13 1 1
14 1 1
15 1 1
16 1 1
17 1 1
18 1 1
19 1 1
20 1 1
21 1 1
22 1 1

Bond Coeffs # fene

1 30 1.5 1 1
2 30 1.5 1 1
3 30 1.5 1 1
4 30 1.5 1 1
5 30 1.5 1 1
6 30 1.5 1 1
7 30 1.5 1 1
8 30 1.5 1 1
9 30 1.5 1 1
10 30 1.5 1 1
11 30 1.5 1 1
12 30 1.5 1 1
13 30 1.5 1 1
14 30 1.5 1 1

Atoms # full

60 11 10 0.0000000000000000e+00 4.1197950451721095e+00 3.8124898351097900e+00 1.4056497155253596e+00 -1 -3 -1
96 0 15 0.0000000000000000e+00 4.5836424383636594e+00 1.3811269267560167e+00 2.4945859936900772e+00 -1 -2 -1
121 0 15 0.0000000000000000e+00 1.5749881230243528e+00 1.1198049855482002e+00 1.6243075663570430e+00 0 -2 -1
119 0 15 0.0000000000000000e+00 4.0994378187254901e+00 4.7491764286576599e+00 2.9859096002212890e+00 -1 -3 -1
78 20 10 0.0000000000000000e+00 4.7929302459861329e+00 1.8573603294294796e+00 1.5951668923754605e+00 -1 -2 -1
6 0 20 0.0000000000000000e+00 2.5468587212742748e+00 1.2512544645829373e+00 1.7175582268534038e+00 0 -2 -1
10 0 20 0.0000000000000000e+00 4.3409767860935755e+00 4.1112224191839664e+00 2.3149504514261330e+00 0 -3 -1
19 0 20 0.0000000000000000e+00 3.8345820648909759e+00 1.7601555128571824e+00 1.7277610373813550e+00 -1 -2 -1
32 0 3 0.0000000000000000e+00 2.9736096850284017e+00 1.2509301850023218e+00 4.6876661467035659e+00 0 -2 -2
83 23 8 0.0000000000000000e+00 4.0151649799346876e+00 4.7839053029476680e-01 9.1378650490788982e-01 0 -2 -1
2 0 20 0.0000000000000000e+00 1.4740927996383628e+00 2.2146973472727658e+00 4.4317108444527369e+00 0 -2 -2
7 0 4 0.0000000000000000e+00 7.8847654047606408e-01 2.4860312764716586e+00 3.7737534559066135e+00 -1 -2 -2
116 0 15 0.0000000000000000e+00 1.8040711047044866e+00 4.9151421563370272e+00 2.2266897843154112e+00 0 -3 -1
87 25 10 0.0000000000000000e+00 3.3454812330546626e+00 4.7588470328077896e+00 1.3935569347730676e+00 -1 -2 -1
75 19 10 0.0000000000000000e+00 3.7122991858347905e+00 8.9212257825126751e-01 1.1807031423424677e-01 0 -2 -1
86 24 10 0.0000000000000000e+00 2.7248278690295180e+00 2.3231997895096614e+00 9.3240425299381258e-02 0 -2 -1
91 0 15 0.0000000000000000e+00 7.1369747195294686e-01 1.6885989344806833e+00 4.4852214061959961e+00 -1 -2 -2
21 0 20 0.0000000000000000e+00 4.1855888475789342e+00 2.0503522587640357e+00 2.0328474229159721e-01 -1 -2 -1
50 6 10 0.0000000000000000e+00 1.5323855930389361e+00 3.3332184414583708e+00 5.6283564644455053e-01 0 -2 -1
58 10 10 0.0000000000000000e+00 2.5499341511720459e+00 4.4019700034521536e+00 4.8542592072751362e-01 0 -2 -1
36 0 20 0.0000000000000000e+00 3.8908200766905106e+00 1.1803469326344818e-01 2.1203944984556280e+00 -1 -1 -1
89 0 15 0.0000000000000000e+00 2.9151257856070285e+00 1.7447973997401681e-01 2.1748328499649632e+00 -1 -1 -1
99 0 15 0.0000000000000000e+00 4.9755694324342601e+00 1.2553692928559952e+00 9.0467214399777646e-02 -1 -2 -1
88 25 9 0.0000000000000000e+00 3.1164057279941164e+00 1.2507924758930686e-01 5.0784441256607560e-01 -1 -1 -1
74 18 8 0.0000000000000000e+00 4.0593518546279821e+00 4.7150166020444679e+00 4.9964272339586850e+00 -1 -2 -2
118 0 15 0.0000000000000000e+00 4.7892273803701126e+00 2.3701162037121311e+00 4.3823823749779480e+00 0 -2 -1
77 20 10 0.0000000000000000e+00 5.7749167510675881e-01 1.9069150216885262e+00 2.1023842291265549e+00 0 -2 -1
55 9 10 0.0000000000000000e+00 6.1025610087663129e-01 6.8450483469067802e-01 2.1875607281682412e+00 0 -2 -1
115 0 15 0.0000000000000000e+00 1.5341840847355639e+00 2.6123689983217391e+00 1.4337709182433143e+00 0 -3 -1
1 0 20 0.0000000000000000e+00 4.6940178481877872e+00 3.8114765017799512e+00 3.1453194328033498e+00 -1 -3 -1
43 3 10 0.0000000000000000e+00 2.3620131310745700e+00 9.8921925597367610e-01 2.6249192821177849e+00 0 -2 -1
84 23 10 0.0000000000000000e+00 3.3466562241901618e+00 8.1890255507065290e-01 1.4581289746289174e+00 0 -2 -1
40 1 10 0.0000000000000000e+00 3.3994107863364253e+00 2.1089079273905025e+00 1.0227695597885620e+00 -1 -2 -1
104 0 15 0.0000000000000000e+00 3.4117078097858742e+00 1.2460846432529016e+00 2.4219510078197279e+00 -1 -2 -1
76 19 10 0.0000000000000000e+00 2.9602915019712355e+00 1.1239494428141537e+00 6.7566167767964258e-01 0 -2 -1
54 8 10 0.0000000000000000e+00 3.1406127366712761e-01 3.0470861442606667e+00 8.1881483210075900e-01 0 -2 -1
39 1 10 0.0000000000000000e+00 3.3876063272602939e+00 2.8814500869083197e+00 4.7804363765397323e-01 -1 -2 -1
69 16 10 0.0000000000000000e+00 4.2326672973894635e+00 2.6634324987636111e+00 9.4065776113909294e-01 -1 -2 -1
57 10 10 0.0000000000000000e+00 2.0343857419964864e+00 3.8298099727985080e+00 4.8555881433861687e+00 0 -2 -2
8 0 20 0.0000000000000000e+00 1.0022729072411178e-01 2.1456803067260664e+00 5.1732245287025325e-01 0 -2 -1
22 0 5 0.0000000000000000e+00 3.3556232367185750e+00 3.9461983751447645e+00 2.6645422972731236e-01 0 -2 -1
25 0 20 0.0000000000000000e+00 3.0769533900951620e+00 3.2662336909235758e+00 4.6827369459507446e+00 0 -2 -2
90 0 15 0.0000000000000000e+00 3.7059151998563560e+00 2.5620566541176006e+00 4.4156987354507296e+00 -1 -3 -2
101 0 15 0.0000000000000000e+00 4.0533666632818717e+00 1.5083329934345493e+00 4.3967563829378564e+00 -1 -2 -2
20 0 20 0.0000000000000000e+00 2.1273119619017788e+00 3.3516330151168505e+00 1.2796707747294391e+00 0 -2 -1
14 0 20 0.0000000000000000e+00 4.4879308953962216e+00 2.8447391578956598e+00 3.6222986239857113e+00 0 -2 -1
3 0 20 0.0000000000000000e+00 4.4871731800863559e+00 4.0045935686081382e+00 5.0250503417095482e-01 -1 -2 -1
9 0 20 0.0000000000000000e+00 4.6188761759097252e+00 4.8000103504071552e+00 1.4805005710392065e+00 -1 -3 -1
23 0 20 0.0000000000000000e+00 4.5509099374515766e-01 1.3567586996890804e+00 2.8476204775531038e+00 0 -1 -1
97 0 15 0.0000000000000000e+00 3.0448507112271002e+00 8.9911826540830297e-02 3.3133895775912721e+00 0 -1 -1
127 0 15 0.0000000000000000e+00 4.3605164292652168e+00 3.2290542838406164e+00 4.9111472897362889e+00 0 -3 -2
62 12 10 0.0000000000000000e+00 5.3773948846145725e-01 4.0847298070738454e+00 3.4137592626826971e+00 0 -2 -1
111 0 15 0.0000000000000000e+00 4.7308912631280275e+00 7.5398160030002925e-01 1.6790867206191955e+00 -1 -2 -1
35 0 20 0.0000000000000000e+00 2.0915196482703946e+00 3.4706537100886581e-01 3.2491771918636010e+00 0 -2 -1
82 22 10 0.0000000000000000e+00 2.0665670012674036e+00 1.6761744385070214e+00 3.4958425110702480e+00 0 -2 -1
73 18 10 0.0000000000000000e+00 3.3375717924289021e+00 4.3550258687705217e+00 4.3431321506422247e+00 -1 -2 -2
85 24 10 0.0000000000000000e+00 2.0799115782686646e+00 2.8949795948315056e+00 4.6920508304771031e+00 0 -2 -2
81 22 8 0.0000000000000000e+00 2.8625448975472634e+00 1.2354796723777970e+00 3.3716988176193707e+00 0 -2 -1
92 0 15 0.0000000000000000e+00 4.6102050551245818e-02 2.6232105859635185e-01 5.2511575515459141e-01 0 -2 0
4 0 20 0.0000000000000000e+00 1.1596513696736530e+00 4.1997119542613542e-01 2.9580364418268572e+00 0 -2 -1
38 0 3 0.0000000000000000e+00 6.8698760791600466e-01 3.8966705839610425e+00 4.2567393645505169e-01 0 -2 -1
27 0 20 0.0000000000000000e+00 2.2374329087123206e+00 1.7331546393896973e+00 5.9003218449989880e-01 0 -2 -1
117 0 15 0.0000000000000000e+00 4.5292326139695174e+00 4.4806381665840274e+00 3.8430443926138942e+00 0 -3 -1
70 16 10 0.0000000000000000e+00 3.8281405422391410e+00 2.8601140688785582e+00 1.7428376758622210e+00 -1 -2 -1
53 8 10 0.0000000000000000e+00 2.0598798685364930e-01 3.8761461895201341e+00 1.3118248504880932e+00 0 -2 -1
125 0 15 0.0000000000000000e+00 9.2034614982401508e-01 3.1624486353754873e+00 3.0669653891722906e+00 0 -2 -1
49 6 8 0.0000000000000000e+00 8.2414205855442368e-01 2.8312899172177053e+00 4.6294090238492056e-02 0 -2 -1
47 5 8 0.0000000000000000e+00 3.9097276788330255e+00 3.2355449416088216e+00 2.6190791538907741e+00 0 -2 -1
29 0 3 0.0000000000000000e+00 7.0699702138941778e-01 4.0640857543355136e+00 2.2238243782762015e+00 0 -2 -1
67 15 10 0.0000000000000000e+00 1.5205908050692569e+00 3.8806629317937760e+00 1.7719213972815320e+00 0 -2 -1
28 0 20 0.0000000000000000e+00 2.5468606191648924e-02 2.5368775292930335e+00 2.9326269430566856e+00 1 -2 -1
79 21 9 0.0000000000000000e+00 1.2376477218764871e-01 9.2502199016507292e-01 3.9812114839440511e+00 0 -1 -1
80 21 10 0.0000000000000000e+00 4.9704779492200375e+00 3.7894822268371481e-01 3.1206339154649108e+00 -1 -1 -1
56 9 10 0.0000000000000000e+00 9.2831509593734679e-02 4.8903401968399773e+00 2.3282482965664766e+00 0 -3 -1
128 0 15 0.0000000000000000e+00 4.7760762430419916e+00 1.8125716598664854e+00 3.5206413935865744e+00 -1 -3 -1
61 12 8 0.0000000000000000e+00 1.7693038565913910e-01 3.4318172829579963e+00 3.9502068961117840e+00 0 -2 -1
12 0 5 0.0000000000000000e+00 2.4208595080468251e+00 2.7279111156798563e-01 1.2053849726493238e+00 0 -2 -1
110 0 15 0.0000000000000000e+00 1.1291309532020040e+00 9.0346345844812603e-01 3.7602161608830946e+00 0 -2 -1
26 0 3 0.0000000000000000e+00 2.0929808739159665e+00 1.0782435992936983e+00 4.2228077085115565e+00 -1 -2 -1
41 2 10 0.0000000000000000e+00 6.5332382733416006e-01 4.9528806094708866e+00 3.8331776056813540e+00 0 -3 -1
42 2 8 0.0000000000000000e+00 2.8507039509304394e-01 4.5344496499897620e+00 4.5930744302075714e+00 0 -3 -1
44 3 10 0.0000000000000000e+00 1.4684381233135317e+00 1.2993477747729243e+00 2.7541044218476709e+00 0 -2 -1
71 17 8 0.0000000000000000e+00 1.4267785397871020e+00 4.8016062362143312e+00 1.2295170287361736e+00 0 -3 -1
46 4 10 0.0000000000000000e+00 5.2539520063778600e-01 1.3881350007992748e+00 1.2786916320977051e+00 0 -2 -1
30 0 20 0.0000000000000000e+00 6.4091851724049420e-01 4.0363185420557496e-01 4.6983260914255354e+00 0 -2 -1
93 0 15 0.0000000000000000e+00 7.1616568888823551e-01 3.0700532227465436e+00 1.9864888222900265e+00 0 -2 -1
123 0 15 0.0000000000000000e+00 2.8910742037323169e+00 2.1438174779750154e+00 3.9268035372584560e+00 0 -2 -1
16 0 20 0.0000000000000000e+00 3.6003579617411106e+00 1.8019537079032344e+00 3.3649103486441367e+00 0 -2 -1
59 11 10 0.0000000000000000e+00 3.1216210056860292e+00 3.8348005565933816e+00 1.3741799269749284e+00 -1 -3 -1
34 0 20 0.0000000000000000e+00 2.3968379204816808e+00 4.4074601914990170e+00 1.7258209534796636e+00 0 -3 -1
109 0 15 0.0000000000000000e+00 2.8513462120610633e+00 3.2264467975402571e+00 3.3194735749538253e+00 0 -2 -1
95 0 15 0.0000000000000000e+00 1.2027948622992541e+00 1.8043061547807322e+00 6.1685893804744374e-01 -1 -2 -1
72 17 8 0.0000000000000000e+00 1.3059414139031738e+00 4.6273576735271327e+00 3.0500727646225351e-01 0 -3 -1
11 0 20 0.0000000000000000e+00 4.7660566578735057e+00 3.1343011517695554e+00 1.7697360025214881e+00 -1 -2 -1
68 15 10 0.0000000000000000e+00 1.8850320936092637e+00 3.4468654431279844e+00 2.5706766391975351e+00 0 -2 -1
48 5 10 0.0000000000000000e+00 4.1342732718293727e+00 2.3062640371164682e+00 2.7357308546630157e+00 0 -2 -1
17 0 20 0.0000000000000000e+00 1.6854912061085401e+00 3.4615311368897785e+00 3.5160831526036795e+00 0 -2 -1
64 13 9 0.0000000000000000e+00 1.5690971983886433e+00 3.4597788045808743e-02 4.5538671749793824e+00 0 -2 -2
33 0 3 0.0000000000000000e+00 4.0978131056972487e+00 8.3558711755407267e-01 3.5264159659223155e+00 -1 -1 -1
65 14 8 0.0000000000000000e+00 1.5900119781931015e+00 4.5551061207943571e+00 3.4166177928327186e+00 0 -2 -1
18 0 3 0.0000000000000000e+00 3.2543109581080620e+00 4.0820830868328200e+00 2.7889111823842483e+00 0 -2 -2
51 7 8 0.0000000000000000e+00 4.4518540669030973e+00 3.9122543949155236e-01 4.3882674934877812e+00 -1 -2 -1
5 0 4 0.0000000000000000e+00 1.2697151891674763e+00 4.0097464237981590e+00 4.1791364437161143e+00 0 -2 -1
37 0 3 0.0000000000000000e+00 3.8574384375580935e+00 3.6377573186566781e+00 3.9950747073505850e+00 -1 -2 -2
24 0 20 0.0000000000000000e+00 2.6829529101107710e+00 4.9970710503273086e+00 4.5697323707270314e+00 -1 -2 -2
45 4 8 0.0000000000000000e+00 9.8204483662354347e-01 7.2277301945436068e-01 7.6896630662211862e-01 0 -2 -1
63 13 9 0.0000000000000000e+00 1.7492125525662348e+00 6.3636730022564059e-01 3.0666734228058390e-01 0 -2 -1
52 7 8 0.0000000000000000e+00 3.4976404066925708e+00 3.1201655220092950e-01 4.2072121924786092e+00 -1 -2 -1
124 0 15 0.0000000000000000e+00 2.4394853884005925e+00 4.2768207738029540e+00 3.9494328311598079e+00 0 -3 -1
66 14 10 0.0000000000000000e+00 2.3041634485526532e+00 4.2681768758146976e+00 2.9509920826435638e+00 0 -2 -1
31 0 4 0.0000000000000000e+00 2.8382686372134467e+00 3.2114892662741181e+00 2.1850068418844399e+00 -1 -2 -1
15 0 20 0.0000000000000000e+00 3.0178030000958924e+00 2.4858620999121186e+00 2.7512930334185604e+00 0 -2 -1
13 0 4 0.0000000000000000e+00 2.2271658897324484e+00 2.2920834298007025e+00 2.2471033720300455e+00 0 -2 -1

Velocities

60 6.8737306551534250e-01 -6.1030185985424035e-01 -1.1210868639970696e-01
96 4.3137801239648976e-01 -3.6957856389567478e-01 5.2587501460090547e-01
121 -1.4623951397636517e+00 6.3913041389143488e-01 -1.3936285064489291e+00
119 -6.0669720464037358e-01 1.6002233566633213e+00 -5.0652943938921458e-01
78 8.5188901569525743e-01 1.9415962348593354e+00 1.2127599586193776e+00
6 1.2031892426185736e-01 -5.8731926877986773e-01 -1.3965772078412972e+00
10 -7.1939659523624788e-01 9.6648092583909384e-01 6.3124541109154542e-01
19 -1.1665354899694982e+00 1.3408198662899426e-01 -2.9951021871275718e-01
32 3.9774587157236851e-01 4.0963888918137897e-01 2.1978018686865712e+00
83 7.8209136991465567e-01 8.1872659297731643e-01 4.8079683119311578e-01
2 -5.6394931232207990e-01 6.6155435004033680e-01 -1.6256110736407935e-02
7 1.7206197538289125e+00 9.6833502458116494e-01 1.3114345925110384e+00
116 -2.9451362882252607e-01 -1.4546485238184359e+00 -9.5790214165548407e-02
87 1.2806991975906725e+00 -3.9937530550067651e-01 -1.5428334055915960e+00
75 2.2827075347652501e+00 -2.3755664002714999e-01 7.9126629195909726e-01
86 6.0195190677816070e-02 -3.0964826878600343e-01 -9.3718883256952001e-01
91 -9.0105346278921594e-01 1.0550286810912151e+00 6.3932655473940869e-01
21 1.1224732845938296e-01 -3.4110432265888463e-01 -2.4159813553106106e+00
50 -4.4398076705216233e-01 2.2225170586076395e+00 1.2328838862498320e-01
58 -1.0030490541027311e-01 1.8046911231046472e+00 6.6138919766002535e-01
36 -1.1642621750599971e+00 -7.4713811594764457e-01 4.2472248721348034e-02
89 -1.6582500293483695e+00 5.2132692914076496e-02 -2.4202533917800878e-01
99 5.7851768236322010e-01 -1.6316682389432955e+00 2.3851138921117107e-01
88 -1.6512189022446153e+00 -1.2421974437453256e-01 8.6970659401320782e-01
74 -4.2742597211123440e-01 1.0923694250556266e+00 -1.6677630682522608e+00
118 -1.4257502812105127e+00 1.1009505369747001e+00 8.3371044017688056e-01
77 3.8012102354819893e-01 1.0186294409471881e+00 -6.7667847561072969e-01
55 8.9990211867254244e-01 5.7769326942417309e-01 -1.3599779042235502e-01
115 -8.9929443250966523e-01 -1.8044836692166812e+00 7.8240132937584161e-01
1 3.6834794286183231e-01 4.3717877401888461e-01 -7.5050191901571790e-03
43 1.0561876317905168e+00 -1.0312854899474662e+00 1.0313669166797665e+00
84 -2.6261499047264991e-01 -1.3236586047855164e-01 -1.3181707822906413e-01
40 -5.1376100703681837e-01 8.4714087837877844e-02 1.4590417251630681e-02
104 5.6579217383463720e-02 -8.2879404957962988e-01 8.6367160363467435e-02
76 3.2824073534767095e-01 8.3766352591400417e-02 -1.7427168628133767e+00
54 -1.3141743313845897e+00 4.8615941978207944e-01 3.6983587033022225e-01
39 3.2662420906462153e-01 4.6146840170926053e-02 -1.1179054913027666e+00
69 8.4979336069275624e-01 -1.6574864700881817e-01 4.8749830943660338e-01
57 -9.0467730807299185e-01 3.8046600438223149e-01 -7.3696886855449550e-01
8 -3.8879626870086159e-01 -6.7235604111606884e-01 -2.1230608619458632e-02
22 -3.6173511296792449e-01 -4.8668129664855042e-01 5.9733036755009827e-01
25 -3.3902544620407610e-01 -1.0199830304249660e+00 1.4892174125832183e-01
90 4.0395660475127393e-01 -1.7194956548943587e+00 -7.5158761524745976e-01
101 5.4755536755652556e-01 -2.2415126355272125e-02 8.6772011813180883e-01
20 -1.1021536863872632e+00 -1.0175279590251395e-01 -3.4419631600860151e-01
14 -1.5363091806916260e-01 7.0214193990854201e-01 2.5811463020977554e-01
3 9.0657814018260197e-01 -1.5377191115163316e+00 -6.6464433389686295e-01
9 1.0428263051408415e+00 9.6842147451469462e-01 -8.3974435262715574e-01
23 1.4773400741671954e+00 -6.7025785460295195e-01 -7.0201660050967452e-01
97 -1.2864489217036359e+00 -1.8952317624800836e+00 1.8939799151397071e-01
127 -3.8146336653570978e-01 1.8324138128844942e+00 -1.2942629687688934e-01
62 3.5085296515232872e-01 2.0656555773905341e-01 -3.8579838231131253e-01
111 5.0628867726466587e-01 3.5167580798358156e-01 -2.4812404663988261e-01
35 -9.7488652011628685e-01 -3.5109603662918987e-01 1.1486377072187028e+00
82 6.5985233780569552e-01 2.3627033570221689e+00 -9.5178910849889242e-01
73 1.1358137652858364e+00 -1.2103638000163672e+00 -4.2191164978016438e-01
85 -1.2379596356474138e+00 -3.3498537612982479e-02 9.2144729338504960e-01
81 2.7505605346772638e-01 -1.2782854967463947e-01 8.2924663975449286e-01
92 3.7048741008789499e-01 -9.0284789523338371e-01 -3.9033916870140212e-01
4 -2.7974058902084586e-01 1.8535877315472074e-01 -4.1496781365016756e-02
38 -1.1955956700997570e+00 -2.1460665759383755e+00 -1.0121808063167122e-01
27 7.9395875611300759e-01 -4.4841804052380280e-01 1.6536989418248942e+00
117 -1.3111015292672140e-01 -1.9647952455557946e-01 -1.0276715875162243e+00
70 -6.1295751723637026e-01 3.2841959202073462e-01 -2.1696418351383495e-01
53 7.5217526689778269e-01 1.0630782095406768e+00 -5.8154870705890138e-01
125 1.7719469520551794e+00 -4.6379714700353875e-01 -2.7793690521419079e-01
49 1.3829475290991650e-01 2.1092979779520243e-01 -1.5364092235550170e-01
47 -5.7635875031374384e-01 -5.7289246876731470e-01 -3.0546270825708208e+00
29 -1.9729427333091476e-01 -4.9014809717716534e-01 5.9478753496737598e-02
67 -7.8493345177978435e-01 1.9645056327523951e+00 1.7410469187360895e+00
28 -4.6420930216983604e-02 -6.3931857093784972e-01 -6.2165471889164914e-01
79 4.5008905680584582e-01 4.0827196966900831e-01 6.8127517213745825e-01
80 -1.1512094388741696e+00 -1.0463465203454259e+00 1.5000749180288239e-01
56 -3.0444222226512790e-01 -3.1686585668851547e-01 8.5225814489914009e-01
128 -5.8480253883585109e-01 -6.5905397155472545e-01 1.5007486216041033e+00
61 -5.4121479095502278e-01 -4.2306127843944252e-01 7.1226933051756725e-01
12 2.4151171311575376e-01 4.8741123943632519e-01 -4.6668298875529035e-01
110 -4.8642065380008553e-01 -2.8434161123446255e-01 3.9911135708939749e-01
26 1.6045782692290156e-03 8.7959226775160682e-01 -8.3213194183894401e-01
41 1.1826416258722900e+00 -6.3431878122520147e-01 -2.2278510153180980e-01
42 3.4071913015347266e-01 -1.3691769039338999e+00 -4.0672135171429935e-01
44 6.8731817278692486e-01 1.0720745505715905e+00 -1.3674192093675919e+00
71 -5.0557836011292823e-01 1.1287536630646509e+00 1.2117260302281394e+00
46 -4.3234784228277462e-01 -2.1107938052576047e+00 -7.3258039921904849e-01
30 1.2738123901162404e+00 -1.6117593435318642e+00 6.0239042186986747e-01
93 7.1300423653870970e-01 7.7732834445114973e-01 9.0238854893752318e-01
123 3.4345691478902307e-01 3.4957475503268809e-01 -1.3794159053252524e+00
16 -1.9884624121638975e-01 1.6161512083070677e+00 8.4926949835715282e-01
59 6.4275936462819949e-01 2.2135738979266303e-01 2.8845914468749662e-01
34 -4.8119913851639629e-01 -2.6710122996853580e-01 -1.3937725372082914e+00
109 1.3588479084882474e+00 -1.1513162137498305e+00 9.0613241971978109e-01
95 3.2677053395493277e-01 9.6750799645283325e-01 -8.4727681205778493e-01
72 -8.7187574722580163e-01 2.5408868358524686e+00 1.0209585155181287e+00
11 7.5835445879468077e-01 7.0962522943284001e-01 3.3877473929309798e-01
68 -2.0161822689366235e-01 2.9406778228423713e-01 -7.5680494845146373e-01
48 9.7584566050478744e-02 -2.3665706040002784e-02 9.3530259107807034e-01
17 -7.6074459086771684e-01 -1.2010872569026398e+00 1.0823689407801722e+00
64 1.6248427298750062e-01 2.9988584889764647e-01 -1.4449528195637369e+00
33 -9.5202936292256890e-01 1.1221721927956074e+00 6.9246472516053537e-01
65 1.7153468134420213e+00 2.0885910415006420e-01 6.8684373749849581e-01
18 -1.1328580920171014e+00 -2.1408268818647311e+00 2.8337354119332253e-01
51 -1.1716572783240144e-01 3.4485023309507268e-01 1.8532501468783720e+00
5 2.1745613433238042e-01 -1.2278706996807527e+00 -3.5121091333287163e-01
37 -1.3918245371586595e+00 7.7431819878945118e-01 -3.9438956485774612e-01
24 -1.0973248867959686e+00 7.3608795636697388e-01 3.4228100239428155e-01
45 5.7490365712219593e-01 -7.2216149944042199e-02 -1.7962074868244915e+00
63 -5.1387404752795129e-02 -3.1581783118834122e-01 3.0228063745432787e-01
52 -7.1870661591751039e-01 -1.5076220414163115e+00 1.3485180667809973e+00
124 8.1450014270679727e-01 -1.4568928581924994e+00 -1.7278418178440667e+00
66 3.2845434005256102e-01 5.4779385752076426e-01 9.2455916241951974e-01
31 4.7977407032798175e-01 -8.3803304423629310e-01 5.6381447850991129e-01
15 1.4217495552444535e+00 1.0085859357994438e+00 -8.3432506101001058e-01
13 3.6055249327567862e-01 8.0587322199982256e-02 -1.0009981126866541e-01

Bonds

1 5 6 84
2 7 6 43
3 9 6 121
4 7 10 60
5 9 10 119
6 6 19 40
7 8 19 78
8 9 19 104
9 6 32 75
10 1 83 84
11 1 2 7
12 8 2 85
13 9 2 91
14 1 87 88
15 1 75 76
16 3 75 83
17 8 21 69
18 9 21 101
19 3 50 57
20 4 58 88
21 8 36 87
22 9 36 89
23 1 77 78
24 1 55 56
25 1 1 10
26 8 1 62
27 9 1 117
28 1 43 44
29 3 40 69
30 4 76 84
31 1 39 40
32 4 39 86
33 1 69 70
34 1 57 58
35 4 57 85
36 1 8 21
37 8 8 54
38 9 8 99
39 1 22 25
40 7 22 58
41 7 25 39
42 9 25 90
43 5 20 67
44 8 20 50
45 9 20 115
46 2 14 28
47 7 14 61
48 9 14 118
49 6 3 60
50 7 3 74
51 9 3 127
52 1 9 36
53 7 9 56
54 9 9 111
55 6 23 77
56 8 23 55
57 9 23 96
58 5 35 65
59 8 35 43
60 9 35 97
61 1 73 74
62 1 85 86
63 1 81 82
64 5 4 55
65 8 4 44
66 9 4 110
67 6 38 53
68 6 27 76
69 8 27 86
70 9 27 95
71 1 53 54
72 1 49 50
73 3 49 54
74 1 47 48
75 3 47 70
76 6 29 67
77 1 67 68
78 6 28 48
79 9 28 128
80 1 79 80
81 4 56 80
82 1 61 62
83 1 12 34
84 7 12 71
85 6 26 82
86 1 41 42
87 4 41 62
88 3 44 82
89 1 71 72
90 3 46 77
91 4 46 78
92 5 30 42
93 7 30 41
94 9 30 92
95 5 16 48
96 7 16 81
97 9 16 123
98 1 59 60
99 4 59 87
100 7 34 59
101 9 34 116
102 5 11 53
103 8 11 70
104 9 11 93
105 6 17 68
106 9 17 125
107 3 64 72
108 6 33 80
109 1 65 66
110 6 18 66
111 1 51 52
112 3 51 79
113 2 5 17
114 6 37 73
115 5 24 52
116 7 24 73
117 9 24 124
118 1 45 46
119 3 45 63
120 1 63 64
121 3 66 68
122 2 15 31
123 9 15 109
124 1 13 15
